<?xml version="1.0" encoding="UTF-8"?>

<!-- generated on 2025-04-22 16:37:15 by Eclipse SUMO GUI Version 1.12.0
<configuration xmlns:xsi="http://www.w3.org/2001/XMLSchema-instance" xsi:noNamespaceSchemaLocation="http://sumo.dlr.de/xsd/sumoConfiguration.xsd">

    <input>
        <net-file value="./dataset/HUST2/net.xml"/>
        <route-files value="./dataset/HUST2/routes.xml"/>
    </input>

    <output>
        <netstate-dump value="./dataset/HUST2/netstate.xml"/>
        <tripinfo-output value="./dataset/HUST2/tripinfo.xml"/>
    </output>

    <time>
        <begin value="0"/>
        <end value="1000"/>
    </time>

    <traci_server>
        <remote-port value="44615"/>
    </traci_server>

</configuration>
-->

<netstate xmlns:xsi="http://www.w3.org/2001/XMLSchema-instance" xsi:noNamespaceSchemaLocation="http://sumo.dlr.de/xsd/netstate_file.xsd">
    <timestep time="0.00">
        <edge id="1267842570#0">
            <lane id="1267842570#0_0">
                <vehicle id="0" pos="0.20" speed="0.00"/>
            </lane>
        </edge>
    </timestep>
</netstate>
