<?xml version="1.0" encoding="UTF-8"?>

<!-- generated on 2025-04-22 15:38:59 by Eclipse SUMO GUI Version 1.12.0
<configuration xmlns:xsi="http://www.w3.org/2001/XMLSchema-instance" xsi:noNamespaceSchemaLocation="http://sumo.dlr.de/xsd/sumoConfiguration.xsd">

    <input>
        <net-file value="./dataset/HUST/net.xml"/>
        <route-files value="./dataset/HUST/routes.xml"/>
    </input>

    <output>
        <netstate-dump value="./dataset/HUST/netstate.xml"/>
        <tripinfo-output value="./dataset/HUST/tripinfo.xml"/>
    </output>

    <time>
        <begin value="0"/>
        <end value="1000"/>
    </time>

    <traci_server>
        <remote-port value="34313"/>
    </traci_server>

</configuration>
-->

<netstate xmlns:xsi="http://www.w3.org/2001/XMLSchema-instance" xsi:noNamespaceSchemaLocation="http://sumo.dlr.de/xsd/netstate_file.xsd">
    <timestep time="0.00">
        <edge id="1267842570#0">
            <lane id="1267842570#0_0">
                <vehicle id="0" pos="0.20" speed="0.00"/>
            </lane>
        </edge>
    </timestep>
    <timestep time="1.00">
        <edge id=":11774805950_5">
            <lane id=":11774805950_5_0">
                <vehicle id="0" pos="2.49" speed="2.49"/>
            </lane>
        </edge>
    </timestep>
    <timestep time="2.00">
        <edge id=":11774805948_0">
            <lane id=":11774805948_0_0">
                <vehicle id="0" pos="0.77" speed="3.15"/>
            </lane>
        </edge>
        <edge id="838419180#0">
            <lane id="838419180#0_0">
                <vehicle id="2" pos="5.10" speed="0.00"/>
            </lane>
            <lane id="838419180#0_1"/>
            <lane id="838419180#0_2"/>
        </edge>
    </timestep>
    <timestep time="3.00">
        <edge id=":11774805948_0">
            <lane id=":11774805948_0_0">
                <vehicle id="0" pos="6.44" speed="5.67"/>
            </lane>
        </edge>
        <edge id="838419180#0">
            <lane id="838419180#0_0">
                <vehicle id="2" pos="7.44" speed="2.34"/>
            </lane>
            <lane id="838419180#0_1"/>
            <lane id="838419180#0_2"/>
        </edge>
    </timestep>
    <timestep time="4.00">
        <edge id="-1267842569#1">
            <lane id="-1267842569#1_0">
                <vehicle id="0" pos="4.42" speed="4.92"/>
            </lane>
        </edge>
        <edge id="399816039#0">
            <lane id="399816039#0_0">
                <vehicle id="4" pos="0.20" speed="0.00"/>
            </lane>
        </edge>
        <edge id="838419180#0">
            <lane id="838419180#0_0">
                <vehicle id="2" pos="11.22" speed="3.78"/>
            </lane>
            <lane id="838419180#0_1"/>
            <lane id="838419180#0_2"/>
        </edge>
    </timestep>
    <timestep time="5.00">
        <edge id=":10134947885_1">
            <lane id=":10134947885_1_0">
                <vehicle id="4" pos="2.13" speed="2.13"/>
            </lane>
        </edge>
        <edge id=":11774805956_0">
            <lane id=":11774805956_0_0">
                <vehicle id="0" pos="4.29" speed="5.71"/>
            </lane>
        </edge>
        <edge id=":7843976812_0">
            <lane id=":7843976812_0_0">
                <vehicle id="2" pos="2.60" speed="4.54"/>
            </lane>
        </edge>
        <edge id="708920951#0">
            <lane id="708920951#0_0">
                <vehicle id="5" pos="5.10" speed="0.00"/>
            </lane>
        </edge>
    </timestep>
    <timestep time="6.00">
        <edge id=":11774805956_0">
            <lane id=":11774805956_0_0">
                <vehicle id="0" pos="8.82" speed="4.53"/>
            </lane>
        </edge>
        <edge id="-1237142222#1">
            <lane id="-1237142222#1_0">
                <vehicle id="6" pos="5.10" speed="0.00"/>
            </lane>
        </edge>
        <edge id="1080884301#0">
            <lane id="1080884301#0_0">
                <vehicle id="2" pos="1.40" speed="3.85"/>
            </lane>
        </edge>
        <edge id="399816039#1">
            <lane id="399816039#1_0">
                <vehicle id="4" pos="2.49" speed="3.71"/>
            </lane>
        </edge>
        <edge id="708920951#0">
            <lane id="708920951#0_0">
                <vehicle id="5" pos="6.61" speed="1.51"/>
            </lane>
        </edge>
    </timestep>
    <timestep time="7.00">
        <edge id=":9907062290_0">
            <lane id=":9907062290_0_0">
                <vehicle id="2" pos="2.27" speed="4.00"/>
            </lane>
        </edge>
        <edge id="-1237142222#1">
            <lane id="-1237142222#1_0">
                <vehicle id="6" pos="7.65" speed="2.55"/>
            </lane>
        </edge>
        <edge id="-953227384#3">
            <lane id="-953227384#3_0">
                <vehicle id="0" pos="0.01" speed="4.37"/>
            </lane>
        </edge>
        <edge id="399816039#1">
            <lane id="399816039#1_0">
                <vehicle id="4" pos="8.40" speed="5.91"/>
            </lane>
        </edge>
        <edge id="601468009#0">
            <lane id="601468009#0_0">
                <vehicle id="7" pos="5.10" speed="0.00"/>
            </lane>
        </edge>
        <edge id="708920951#0">
            <lane id="708920951#0_0">
                <vehicle id="5" pos="10.31" speed="3.70"/>
            </lane>
        </edge>
    </timestep>
    <timestep time="8.00">
        <edge id="-1237142222#1">
            <lane id="-1237142222#1_0">
                <vehicle id="6" pos="12.41" speed="4.76"/>
            </lane>
        </edge>
        <edge id="-596802481#0">
            <lane id="-596802481#0_0">
                <vehicle id="8" pos="5.10" speed="0.00"/>
            </lane>
        </edge>
        <edge id="-953227384#3">
            <lane id="-953227384#3_0">
                <vehicle id="0" pos="6.84" speed="6.83"/>
            </lane>
        </edge>
        <edge id="1080884301#1">
            <lane id="1080884301#1_0">
                <vehicle id="2" pos="0.32" speed="3.94"/>
            </lane>
        </edge>
        <edge id="399816039#1">
            <lane id="399816039#1_0">
                <vehicle id="4" pos="16.61" speed="8.21"/>
            </lane>
        </edge>
        <edge id="601468009#0">
            <lane id="601468009#0_0">
                <vehicle id="7" pos="6.53" speed="1.43"/>
            </lane>
        </edge>
        <edge id="708920951#0">
            <lane id="708920951#0_0">
                <vehicle id="5" pos="16.18" speed="5.87"/>
            </lane>
        </edge>
    </timestep>
    <timestep time="9.00">
        <edge id=":11774805967_4">
            <lane id=":11774805967_4_0">
                <vehicle id="0" pos="4.50" speed="8.36"/>
            </lane>
        </edge>
        <edge id="-1237142222#1">
            <lane id="-1237142222#1_0">
                <vehicle id="6" pos="17.95" speed="5.54"/>
            </lane>
        </edge>
        <edge id="-596802481#0">
            <lane id="-596802481#0_0">
                <vehicle id="8" pos="6.83" speed="1.73"/>
            </lane>
        </edge>
        <edge id="1080884301#1">
            <lane id="1080884301#1_0">
                <vehicle id="2" pos="4.93" speed="4.61"/>
            </lane>
        </edge>
        <edge id="399816039#1">
            <lane id="399816039#1_0">
                <vehicle id="4" pos="27.22" speed="10.61"/>
            </lane>
        </edge>
        <edge id="601468009#0">
            <lane id="601468009#0_0">
                <vehicle id="7" pos="10.57" speed="4.03"/>
            </lane>
        </edge>
        <edge id="708920951#0">
            <lane id="708920951#0_0">
                <vehicle id="5" pos="21.57" speed="5.39"/>
            </lane>
        </edge>
    </timestep>
    <timestep time="10.00">
        <edge id=":9907062289_0">
            <lane id=":9907062289_0_0">
                <vehicle id="2" pos="0.95" speed="2.67"/>
            </lane>
        </edge>
        <edge id="-1237142222#1">
            <lane id="-1237142222#1_0">
                <vehicle id="6" pos="23.24" speed="5.28"/>
            </lane>
        </edge>
        <edge id="-596802481#0">
            <lane id="-596802481#0_0">
                <vehicle id="8" pos="10.06" speed="3.23"/>
            </lane>
        </edge>
        <edge id="-953227384#2">
            <lane id="-953227384#2_0">
                <vehicle id="0" pos="5.13" speed="10.73"/>
            </lane>
        </edge>
        <edge id="399816039#1">
            <lane id="399816039#1_0">
                <vehicle id="4" pos="38.50" speed="11.27"/>
            </lane>
        </edge>
        <edge id="601468009#0">
            <lane id="601468009#0_0">
                <vehicle id="7" pos="16.77" speed="6.21"/>
            </lane>
        </edge>
        <edge id="708920951#0">
            <lane id="708920951#0_0">
                <vehicle id="5" pos="26.72" speed="5.15"/>
            </lane>
        </edge>
    </timestep>
    <timestep time="11.00">
        <edge id=":11490084886_7">
            <lane id=":11490084886_7_0">
                <vehicle id="6" pos="2.01" speed="5.05"/>
            </lane>
        </edge>
        <edge id=":9907062289_0">
            <lane id=":9907062289_0_0">
                <vehicle id="2" pos="3.75" speed="2.80"/>
            </lane>
        </edge>
        <edge id="-596802481#0">
            <lane id="-596802481#0_0">
                <vehicle id="8" pos="15.86" speed="5.80"/>
            </lane>
        </edge>
        <edge id="-953227384#2">
            <lane id="-953227384#2_0">
                <vehicle id="0" pos="13.61" speed="8.48"/>
            </lane>
        </edge>
        <edge id="399816039#1">
            <lane id="399816039#1_0">
                <vehicle id="4" pos="45.61" speed="7.11"/>
            </lane>
        </edge>
        <edge id="601468009#0">
            <lane id="601468009#0_0">
                <vehicle id="7" pos="25.41" speed="8.63"/>
            </lane>
        </edge>
        <edge id="708920951#0">
            <lane id="708920951#0_0">
                <vehicle id="5" pos="31.58" speed="4.86"/>
            </lane>
        </edge>
    </timestep>
    <timestep time="12.00">
        <edge id=":11490084886_7">
            <lane id=":11490084886_7_0">
                <vehicle id="6" pos="6.45" speed="4.43"/>
            </lane>
        </edge>
        <edge id=":11774805966_2">
            <lane id=":11774805966_2_0">
                <vehicle id="0" pos="0.06" speed="5.72"/>
            </lane>
        </edge>
        <edge id=":2218559167_4">
            <lane id=":2218559167_4_0">
                <vehicle id="4" pos="2.92" speed="3.73"/>
            </lane>
        </edge>
        <edge id="-1080884301#1">
            <lane id="-1080884301#1_0">
                <vehicle id="2" pos="1.60" speed="2.51"/>
            </lane>
        </edge>
        <edge id="-596802481#0">
            <lane id="-596802481#0_0">
                <vehicle id="8" pos="21.48" speed="5.61"/>
            </lane>
        </edge>
        <edge id="601468009#0">
            <lane id="601468009#0_0">
                <vehicle id="7" pos="36.07" speed="10.67"/>
            </lane>
        </edge>
        <edge id="708920951#0">
            <lane id="708920951#0_0">
                <vehicle id="5" pos="36.99" speed="5.41"/>
            </lane>
        </edge>
    </timestep>
    <timestep time="13.00">
        <edge id=":10130399539_2">
            <lane id=":10130399539_2_0">
                <vehicle id="5" pos="2.72" speed="5.52"/>
            </lane>
        </edge>
        <edge id=":11490084886_7">
            <lane id=":11490084886_7_0">
                <vehicle id="6" pos="11.23" speed="4.79"/>
            </lane>
        </edge>
        <edge id=":11774805966_2">
            <lane id=":11774805966_2_0">
                <vehicle id="0" pos="5.32" speed="5.26"/>
            </lane>
        </edge>
        <edge id=":2218559167_10">
            <lane id=":2218559167_10_0">
                <vehicle id="4" pos="4.89" speed="5.95"/>
            </lane>
        </edge>
        <edge id=":9907062290_2">
            <lane id=":9907062290_2_0">
                <vehicle id="2" pos="0.06" speed="5.10"/>
            </lane>
        </edge>
        <edge id="-596802481#0">
            <lane id="-596802481#0_0">
                <vehicle id="8" pos="26.98" speed="5.50"/>
            </lane>
        </edge>
        <edge id="601468009#0">
            <lane id="601468009#0_0">
                <vehicle id="7" pos="47.44" speed="11.36"/>
            </lane>
        </edge>
    </timestep>
    <timestep time="14.00">
        <edge id=":5718888804_5">
            <lane id=":5718888804_5_0">
                <vehicle id="5" pos="2.90" speed="4.76"/>
            </lane>
        </edge>
        <edge id=":9246563210_2">
            <lane id=":9246563210_2_0">
                <vehicle id="7" pos="4.18" speed="10.42"/>
            </lane>
        </edge>
        <edge id=":9907062290_2">
            <lane id=":9907062290_2_0">
                <vehicle id="2" pos="4.93" speed="4.87"/>
            </lane>
        </edge>
        <edge id="-1237142222#0">
            <lane id="-1237142222#0_0">
                <vehicle id="6" pos="2.38" speed="5.03"/>
            </lane>
        </edge>
        <edge id="-596802481#0">
            <lane id="-596802481#0_0">
                <vehicle id="8" pos="32.61" speed="5.63"/>
            </lane>
        </edge>
        <edge id="1267842571#1">
            <lane id="1267842571#1_0">
                <vehicle id="0" pos="5.36" speed="5.76"/>
            </lane>
        </edge>
        <edge id="897470229">
            <lane id="897470229_0">
                <vehicle id="4" pos="1.31" speed="6.83"/>
            </lane>
        </edge>
    </timestep>
    <timestep time="15.00">
        <edge id=":11774805957_7">
            <lane id=":11774805957_7_0">
                <vehicle id="0" pos="3.34" speed="5.28"/>
            </lane>
        </edge>
        <edge id=":5718888804_5">
            <lane id=":5718888804_5_0">
                <vehicle id="5" pos="9.20" speed="6.29"/>
            </lane>
        </edge>
        <edge id="-1080884301#0">
            <lane id="-1080884301#0_0">
                <vehicle id="2" pos="3.00" speed="3.76"/>
            </lane>
        </edge>
        <edge id="-1237142222#0">
            <lane id="-1237142222#0_0">
                <vehicle id="6" pos="7.87" speed="5.49"/>
            </lane>
        </edge>
        <edge id="-596802481#0">
            <lane id="-596802481#0_0">
                <vehicle id="8" pos="37.87" speed="5.26"/>
            </lane>
        </edge>
        <edge id="601468009#1">
            <lane id="601468009#1_0">
                <vehicle id="7" pos="4.07" speed="11.37"/>
            </lane>
        </edge>
        <edge id="897470229">
            <lane id="897470229_0">
                <vehicle id="4" pos="10.26" speed="8.95"/>
            </lane>
        </edge>
    </timestep>
    <timestep time="16.00">
        <edge id=":104782505_1">
            <lane id=":104782505_1_0">
                <vehicle id="5" pos="3.53" speed="4.04"/>
            </lane>
        </edge>
        <edge id=":11774805957_7">
            <lane id=":11774805957_7_0">
                <vehicle id="0" pos="8.40" speed="5.06"/>
            </lane>
        </edge>
        <edge id=":7843976812_5">
            <lane id=":7843976812_5_0">
                <vehicle id="2" pos="2.51" speed="2.63"/>
            </lane>
        </edge>
        <edge id="-1237142222#0">
            <lane id="-1237142222#0_0">
                <vehicle id="6" pos="12.36" speed="4.49"/>
            </lane>
        </edge>
        <edge id="-596802481#0">
            <lane id="-596802481#0_0">
                <vehicle id="8" pos="43.05" speed="5.18"/>
            </lane>
        </edge>
        <edge id="601468009#1">
            <lane id="601468009#1_0">
                <vehicle id="7" pos="15.03" speed="10.96"/>
            </lane>
        </edge>
        <edge id="897470229">
            <lane id="897470229_0">
                <vehicle id="4" pos="21.04" speed="10.78"/>
            </lane>
        </edge>
    </timestep>
    <timestep time="17.00">
        <edge id=":11774805965_4">
            <lane id=":11774805965_4_0">
                <vehicle id="0" pos="2.31" speed="5.63"/>
            </lane>
        </edge>
        <edge id=":436170722_8">
            <lane id=":436170722_8_0">
                <vehicle id="5" pos="1.66" speed="3.69"/>
            </lane>
        </edge>
        <edge id="-1237142222#0">
            <lane id="-1237142222#0_0">
                <vehicle id="6" pos="17.11" speed="4.75"/>
            </lane>
        </edge>
        <edge id="-596802481#0">
            <lane id="-596802481#0_0">
                <vehicle id="8" pos="48.30" speed="5.25"/>
            </lane>
        </edge>
        <edge id="1080884301#0">
            <lane id="1080884301#0_0">
                <vehicle id="2" pos="0.52" speed="2.69"/>
            </lane>
        </edge>
        <edge id="601468009#1">
            <lane id="601468009#1_0">
                <vehicle id="7" pos="25.81" speed="10.78"/>
            </lane>
        </edge>
        <edge id="897470229">
            <lane id="897470229_0">
                <vehicle id="4" pos="33.93" speed="12.89"/>
            </lane>
        </edge>
    </timestep>
    <timestep time="18.00">
        <edge id=":11774805965_4">
            <lane id=":11774805965_4_0">
                <vehicle id="0" pos="8.11" speed="5.80"/>
            </lane>
        </edge>
        <edge id=":436170722_8">
            <lane id=":436170722_8_0">
                <vehicle id="5" pos="4.50" speed="2.85"/>
            </lane>
        </edge>
        <edge id=":9907062290_0">
            <lane id=":9907062290_0_0">
                <vehicle id="2" pos="1.69" speed="4.30"/>
            </lane>
        </edge>
        <edge id="-1237142222#0">
            <lane id="-1237142222#0_0">
                <vehicle id="6" pos="21.96" speed="4.86"/>
            </lane>
        </edge>
        <edge id="-596802481#0">
            <lane id="-596802481#0_0">
                <vehicle id="8" pos="53.36" speed="5.07"/>
            </lane>
        </edge>
        <edge id="601468009#1">
            <lane id="601468009#1_0">
                <vehicle id="7" pos="37.27" speed="11.46"/>
            </lane>
        </edge>
        <edge id="897470229">
            <lane id="897470229_0">
                <vehicle id="4" pos="47.83" speed="13.91"/>
            </lane>
        </edge>
    </timestep>
    <timestep time="19.00">
        <edge id=":104782505_0">
            <lane id=":104782505_0_0">
                <vehicle id="5" pos="2.43" speed="3.36"/>
            </lane>
        </edge>
        <edge id=":443073917_2">
            <lane id=":443073917_2_0">
                <vehicle id="6" pos="2.26" speed="3.17"/>
            </lane>
        </edge>
        <edge id="-1267842572#1">
            <lane id="-1267842572#1_0">
                <vehicle id="0" pos="2.88" speed="5.41"/>
            </lane>
        </edge>
        <edge id="-596802481#0">
            <lane id="-596802481#0_0">
                <vehicle id="8" pos="56.97" speed="3.61"/>
            </lane>
        </edge>
        <edge id="1080884301#1">
            <lane id="1080884301#1_0">
                <vehicle id="2" pos="0.92" speed="5.12"/>
            </lane>
        </edge>
        <edge id="601468009#1">
            <lane id="601468009#1_0">
                <vehicle id="7" pos="47.90" speed="10.63"/>
            </lane>
        </edge>
        <edge id="897470229">
            <lane id="897470229_0">
                <vehicle id="4" pos="61.78" speed="13.94"/>
            </lane>
        </edge>
    </timestep>
    <timestep time="20.00">
        <edge id=":5684339575_2">
            <lane id=":5684339575_2_0">
                <vehicle id="8" pos="2.82" speed="3.45"/>
            </lane>
        </edge>
        <edge id=":5718888804_1">
            <lane id=":5718888804_1_0">
                <vehicle id="5" pos="2.06" speed="4.72"/>
            </lane>
        </edge>
        <edge id="-1267842572#1">
            <lane id="-1267842572#1_0">
                <vehicle id="0" pos="8.26" speed="5.38"/>
            </lane>
        </edge>
        <edge id="-37771321#8">
            <lane id="-37771321#8_0">
                <vehicle id="6" pos="2.76" speed="2.78"/>
            </lane>
        </edge>
        <edge id="1080884301#1">
            <lane id="1080884301#1_0">
                <vehicle id="2" pos="6.08" speed="5.17"/>
            </lane>
        </edge>
        <edge id="601468009#1">
            <lane id="601468009#1_0">
                <vehicle id="7" pos="59.19" speed="11.29"/>
            </lane>
        </edge>
        <edge id="897470229">
            <lane id="897470229_0">
                <vehicle id="4" pos="71.78" speed="10.00"/>
            </lane>
        </edge>
    </timestep>
    <timestep time="21.00">
        <edge id=":11490084883_6">
            <lane id=":11490084883_6_0">
                <vehicle id="6" pos="4.88" speed="4.98"/>
            </lane>
        </edge>
        <edge id=":5718888804_1">
            <lane id=":5718888804_1_0">
                <vehicle id="5" pos="8.32" speed="6.26"/>
            </lane>
        </edge>
        <edge id=":9907062289_0">
            <lane id=":9907062289_0_0">
                <vehicle id="2" pos="1.68" speed="2.24"/>
            </lane>
        </edge>
        <edge id="-1267842572#1">
            <lane id="-1267842572#1_0">
                <vehicle id="0" pos="14.13" speed="5.87"/>
            </lane>
        </edge>
        <edge id="596802481#0">
            <lane id="596802481#0_0">
                <vehicle id="8" pos="0.30" speed="3.44"/>
            </lane>
        </edge>
        <edge id="601468009#1">
            <lane id="601468009#1_0">
                <vehicle id="7" pos="69.85" speed="10.66"/>
            </lane>
        </edge>
        <edge id="897470229">
            <lane id="897470229_0">
                <vehicle id="4" pos="78.46" speed="6.68"/>
            </lane>
        </edge>
    </timestep>
    <timestep time="22.00">
        <edge id=":8341290600_6">
            <lane id=":8341290600_6_0">
                <vehicle id="4" pos="3.30" speed="5.84"/>
            </lane>
        </edge>
        <edge id=":9907062289_0">
            <lane id=":9907062289_0_0">
                <vehicle id="2" pos="3.83" speed="2.15"/>
            </lane>
        </edge>
        <edge id="-1267842572#1">
            <lane id="-1267842572#1_0">
                <vehicle id="0" pos="18.79" speed="4.66"/>
            </lane>
        </edge>
        <edge id="-37771321#7">
            <lane id="-37771321#7_0">
                <vehicle id="6" pos="2.37" speed="6.64"/>
            </lane>
        </edge>
        <edge id="-708920952">
            <lane id="-708920952_0">
                <vehicle id="5" pos="7.44" speed="8.49"/>
            </lane>
        </edge>
        <edge id="596802481#0">
            <lane id="596802481#0_0">
                <vehicle id="8" pos="5.51" speed="5.21"/>
            </lane>
        </edge>
        <edge id="601468009#1">
            <lane id="601468009#1_0">
                <vehicle id="7" pos="79.12" speed="9.27"/>
            </lane>
        </edge>
    </timestep>
    <timestep time="23.00">
        <edge id=":5684247718_0">
            <lane id=":5684247718_0_0">
                <vehicle id="5" pos="7.73" speed="10.16"/>
            </lane>
        </edge>
        <edge id=":5716530384_3">
            <lane id=":5716530384_3_0">
                <vehicle id="7" pos="0.43" speed="5.62"/>
            </lane>
        </edge>
        <edge id="-1080884301#1">
            <lane id="-1080884301#1_0">
                <vehicle id="2" pos="2.50" speed="3.34"/>
            </lane>
        </edge>
        <edge id="-1267842572#1">
            <lane id="-1267842572#1_0">
                <vehicle id="0" pos="24.28" speed="5.49"/>
            </lane>
        </edge>
        <edge id="-37771321#7">
            <lane id="-37771321#7_0">
                <vehicle id="6" pos="10.97" speed="8.60"/>
            </lane>
        </edge>
        <edge id="-897466054#0">
            <lane id="-897466054#0_0">
                <vehicle id="4" pos="0.49" speed="6.24"/>
            </lane>
        </edge>
        <edge id="596802481#0">
            <lane id="596802481#0_0">
                <vehicle id="8" pos="10.57" speed="5.06"/>
            </lane>
        </edge>
    </timestep>
    <timestep time="24.00">
        <edge id=":12145862644_6">
            <lane id=":12145862644_6_0">
                <vehicle id="6" pos="0.39" speed="11.09"/>
            </lane>
        </edge>
        <edge id=":5716530384_3">
            <lane id=":5716530384_3_0">
                <vehicle id="7" pos="4.44" speed="4.02"/>
            </lane>
        </edge>
        <edge id="-1080884301#1">
            <lane id="-1080884301#1_0">
                <vehicle id="2" pos="6.56" speed="4.06"/>
            </lane>
        </edge>
        <edge id="-1267842572#1">
            <lane id="-1267842572#1_0">
                <vehicle id="0" pos="29.84" speed="5.56"/>
            </lane>
        </edge>
        <edge id="-593642481#3">
            <lane id="-593642481#3_0">
                <vehicle id="5" pos="10.26" speed="11.87"/>
            </lane>
        </edge>
        <edge id="-897466054#0">
            <lane id="-897466054#0_0">
                <vehicle id="4" pos="8.64" speed="8.15"/>
            </lane>
        </edge>
        <edge id="596802481#0">
            <lane id="596802481#0_0">
                <vehicle id="8" pos="15.21" speed="4.64"/>
            </lane>
        </edge>
    </timestep>
    <timestep time="25.00">
        <edge id=":5716530384_7">
            <lane id=":5716530384_7_0">
                <vehicle id="7" pos="4.34" speed="5.10"/>
            </lane>
        </edge>
        <edge id=":9907062290_5">
            <lane id=":9907062290_5_0">
                <vehicle id="2" pos="1.83" speed="3.34"/>
            </lane>
        </edge>
        <edge id="-37771321#6">
            <lane id="-37771321#6_0">
                <vehicle id="6" pos="4.35" speed="13.46"/>
            </lane>
        </edge>
        <edge id="-593642481#3">
            <lane id="-593642481#3_0">
                <vehicle id="5" pos="23.53" speed="13.27"/>
            </lane>
        </edge>
        <edge id="-897466054#0">
            <lane id="-897466054#0_0">
                <vehicle id="4" pos="14.73" speed="6.09"/>
            </lane>
        </edge>
        <edge id="596802481#0">
            <lane id="596802481#0_0">
                <vehicle id="8" pos="19.77" speed="4.56"/>
            </lane>
        </edge>
    </timestep>
    <timestep time="26.00">
        <edge id=":4530855104_1">
            <lane id=":4530855104_1_0">
                <vehicle id="4" pos="4.46" speed="7.91"/>
            </lane>
        </edge>
        <edge id=":5716530384_7">
            <lane id=":5716530384_7_0">
                <vehicle id="7" pos="9.46" speed="5.12"/>
            </lane>
        </edge>
        <edge id="-37771321#6">
            <lane id="-37771321#6_0">
                <vehicle id="6" pos="18.08" speed="13.73"/>
            </lane>
        </edge>
        <edge id="-593642481#3">
            <lane id="-593642481#3_0">
                <vehicle id="5" pos="38.85" speed="15.32"/>
            </lane>
        </edge>
        <edge id="1080884301#1">
            <lane id="1080884301#1_0">
                <vehicle id="2" pos="2.02" speed="3.42"/>
            </lane>
        </edge>
        <edge id="596802481#0">
            <lane id="596802481#0_0">
                <vehicle id="8" pos="25.30" speed="5.53"/>
            </lane>
        </edge>
    </timestep>
    <timestep time="27.00">
        <edge id=":4530855104_1">
            <lane id=":4530855104_1_0">
                <vehicle id="4" pos="12.35" speed="7.89"/>
            </lane>
        </edge>
        <edge id="-37771321#6">
            <lane id="-37771321#6_0">
                <vehicle id="6" pos="31.61" speed="13.53"/>
            </lane>
        </edge>
        <edge id="-593642481#3">
            <lane id="-593642481#3_0">
                <vehicle id="5" pos="55.81" speed="16.96"/>
            </lane>
        </edge>
        <edge id="-601468010">
            <lane id="-601468010_0">
                <vehicle id="7" pos="1.25" speed="3.37"/>
            </lane>
        </edge>
        <edge id="1080884301#1">
            <lane id="1080884301#1_0">
                <vehicle id="2" pos="5.70" speed="3.68"/>
            </lane>
        </edge>
        <edge id="596802481#0">
            <lane id="596802481#0_0">
                <vehicle id="8" pos="30.41" speed="5.11"/>
            </lane>
        </edge>
    </timestep>
    <timestep time="28.00">
        <edge id=":9907062289_0">
            <lane id=":9907062289_0_0">
                <vehicle id="2" pos="2.05" speed="3.00"/>
            </lane>
        </edge>
        <edge id="-37771321#6">
            <lane id="-37771321#6_0">
                <vehicle id="6" pos="44.86" speed="13.24"/>
            </lane>
        </edge>
        <edge id="-601468010">
            <lane id="-601468010_0">
                <vehicle id="7" pos="5.27" speed="4.01"/>
            </lane>
        </edge>
        <edge id="399816039#3">
            <lane id="399816039#3_0">
                <vehicle id="4" pos="6.41" speed="8.11"/>
            </lane>
        </edge>
        <edge id="596802481#0">
            <lane id="596802481#0_0">
                <vehicle id="8" pos="35.82" speed="5.41"/>