<?xml version="1.0" encoding="UTF-8"?>

<!-- generated on 2025-04-15 13:23:25 by Eclipse SUMO GUI Version 1.12.0
<configuration xmlns:xsi="http://www.w3.org/2001/XMLSchema-instance" xsi:noNamespaceSchemaLocation="http://sumo.dlr.de/xsd/sumoConfiguration.xsd">

    <input>
        <net-file value="./dataset/HUST/net.xml"/>
        <route-files value="./dataset/HUST/routes.xml"/>
    </input>

    <output>
        <netstate-dump value="./dataset/HUST/netstate.xml"/>
        <tripinfo-output value="./dataset/HUST/tripinfo.xml"/>
    </output>

    <time>
        <begin value="0"/>
        <end value="1000"/>
    </time>

    <traci_server>
        <remote-port value="43931"/>
    </traci_server>

</configuration>
-->

<netstate xmlns:xsi="http://www.w3.org/2001/XMLSchema-instance" xsi:noNamespaceSchemaLocation="http://sumo.dlr.de/xsd/netstate_file.xsd">
    <timestep time="0.00">
        <edge id="-1328731396">
            <lane id="-1328731396_0">
                <vehicle id="0" pos="5.10" speed="0.00"/>
            </lane>
        </edge>
    </timestep>
    <timestep time="1.00">
        <edge id="-1328731396">
            <lane id="-1328731396_0">
                <vehicle id="0" pos="7.35" speed="2.25"/>
            </lane>
        </edge>
        <edge id="-38136736#13">
            <lane id="-38136736#13_0">
                <vehicle id="1" pos="5.10" speed="0.00"/>
            </lane>
        </edge>
    </timestep>
    <timestep time="2.00">
        <edge id="-1328731396">
            <lane id="-1328731396_0">
                <vehicle id="0" pos="12.07" speed="4.72"/>
            </lane>
        </edge>
        <edge id="-1339361806#0">
            <lane id="-1339361806#0_0">
                <vehicle id="2" pos="0.20" speed="0.00"/>
            </lane>
        </edge>
        <edge id="-38136736#13">
            <lane id="-38136736#13_0">
                <vehicle id="1" pos="6.81" speed="1.71"/>
            </lane>
        </edge>
    </timestep>
    <timestep time="3.00">
        <edge id=":5716530358_5">
            <lane id=":5716530358_5_0">
                <vehicle id="2" pos="1.36" speed="1.36"/>
            </lane>
        </edge>
        <edge id="-1328731396">
            <lane id="-1328731396_0">
                <vehicle id="0" pos="16.70" speed="4.63"/>
            </lane>
        </edge>
        <edge id="-38136736#13">
            <lane id="-38136736#13_0">
                <vehicle id="1" pos="11.05" speed="4.24"/>
            </lane>
        </edge>
        <edge id="597567672#4">
            <lane id="597567672#4_0">
                <vehicle id="3" pos="5.10" speed="0.00"/>
            </lane>
        </edge>
    </timestep>
    <timestep time="4.00">
        <edge id=":5716530358_5">
            <lane id=":5716530358_5_0">
                <vehicle id="2" pos="4.70" speed="3.35"/>
            </lane>
        </edge>
        <edge id=":6659047599_0">
            <lane id=":6659047599_0_0">
                <vehicle id="1" pos="0.62" speed="4.02"/>
            </lane>
        </edge>
        <edge id="-1237202847">
            <lane id="-1237202847_0">
                <vehicle id="4" pos="5.10" speed="0.00"/>
            </lane>
        </edge>
        <edge id="-1328731396">
            <lane id="-1328731396_0">
                <vehicle id="0" pos="21.42" speed="4.72"/>
            </lane>
        </edge>
        <edge id="597567672#4">
            <lane id="597567672#4_0">
                <vehicle id="3" pos="7.35" speed="2.25"/>
            </lane>
        </edge>
    </timestep>
    <timestep time="5.00">
        <edge id=":5716530358_5">
            <lane id=":5716530358_5_0">
                <vehicle id="2" pos="7.92" speed="3.22"/>
            </lane>
        </edge>
        <edge id=":6659047599_0">
            <lane id=":6659047599_0_0">
                <vehicle id="1" pos="4.30" speed="3.68"/>
            </lane>
        </edge>
        <edge id="-1237202847">
            <lane id="-1237202847_0">
                <vehicle id="4" pos="6.54" speed="1.44"/>
            </lane>
        </edge>
        <edge id="-1328731396">
            <lane id="-1328731396_0">
                <vehicle id="0" pos="26.24" speed="4.82"/>
            </lane>
        </edge>
        <edge id="-597555258#1">
            <lane id="-597555258#1_0">
                <vehicle id="5" pos="5.10" speed="0.00"/>
            </lane>
        </edge>
        <edge id="597567672#4">
            <lane id="597567672#4_0">
                <vehicle id="3" pos="11.46" speed="4.11"/>
            </lane>
        </edge>
    </timestep>
    <timestep time="6.00">
        <edge id=":10134947741_4">
            <lane id=":10134947741_4_0">
                <vehicle id="1" pos="0.34" speed="2.23"/>
            </lane>
        </edge>
        <edge id=":10134947921_4">
            <lane id=":10134947921_4_0">
                <vehicle id="2" pos="1.45" speed="3.64"/>
            </lane>
        </edge>
        <edge id="-1237202847">
            <lane id="-1237202847_0">
                <vehicle id="4" pos="9.66" speed="3.12"/>
            </lane>
        </edge>
        <edge id="-1328731396">
            <lane id="-1328731396_0">
                <vehicle id="0" pos="30.90" speed="4.66"/>
            </lane>
        </edge>
        <edge id="-597555258#1">
            <lane id="-597555258#1_0">
                <vehicle id="5" pos="7.48" speed="2.38"/>
            </lane>
        </edge>
        <edge id="597567672#4">
            <lane id="597567672#4_0">
                <vehicle id="3" pos="16.83" speed="5.37"/>
            </lane>
        </edge>
        <edge id="683876839#7">
            <lane id="683876839#7_0">
                <vehicle id="6" pos="0.10" speed="0.00"/>
            </lane>
        </edge>
    </timestep>
    <timestep time="7.00">
        <edge id=":11393648036_0">
            <lane id=":11393648036_0_0">
                <vehicle id="6" pos="2.13" speed="2.13"/>
            </lane>
        </edge>
        <edge id="-1237202847">
            <lane id="-1237202847_0">
                <vehicle id="4" pos="15.31" speed="5.66"/>
            </lane>
        </edge>
        <edge id="-1328731396">
            <lane id="-1328731396_0">
                <vehicle id="0" pos="36.43" speed="5.53"/>
            </lane>
        </edge>
        <edge id="-50536193#3">
            <lane id="-50536193#3_0">
                <vehicle id="7" pos="5.10" speed="0.00"/>
            </lane>
        </edge>
        <edge id="-597555258#1">
            <lane id="-597555258#1_0">
                <vehicle id="5" pos="11.39" speed="3.91"/>
            </lane>
        </edge>
        <edge id="597567672#4">
            <lane id="597567672#4_0">
                <vehicle id="3" pos="22.84" speed="6.01"/>
            </lane>
        </edge>
    </timestep>
    <timestep time="8.00">
        <edge id=":11393648036_0">
            <lane id=":11393648036_0_0">
                <vehicle id="6" pos="6.17" speed="4.04"/>
            </lane>
        </edge>
        <edge id="-1040758930#0">
            <lane id="-1040758930#0_0">
                <vehicle id="8" pos="3.43" speed="0.00"/>
            </lane>
        </edge>
        <edge id="-1237202847">
            <lane id="-1237202847_0">
                <vehicle id="4" pos="20.40" speed="5.09"/>
            </lane>
        </edge>
        <edge id="-1328731396">
            <lane id="-1328731396_0">
                <vehicle id="0" pos="41.54" speed="5.12"/>
            </lane>
        </edge>
        <edge id="-50536193#3">
            <lane id="-50536193#3_0">
                <vehicle id="7" pos="6.42" speed="1.32"/>
            </lane>
        </edge>
        <edge id="-597555258#1">
            <lane id="-597555258#1_0">
                <vehicle id="5" pos="15.48" speed="4.09"/>
            </lane>
        </edge>
        <edge id="597567672#4">
            <lane id="597567672#4_0">
                <vehicle id="3" pos="27.81" speed="4.97"/>
            </lane>
        </edge>
    </timestep>
    <timestep time="9.00">
        <edge id=":11491101306_4">
            <lane id=":11491101306_4_0">
                <vehicle id="4" pos="2.00" speed="4.48"/>
            </lane>
        </edge>
        <edge id=":9582451151_2">
            <lane id=":9582451151_2_0">
                <vehicle id="8" pos="1.54" speed="1.54"/>
            </lane>
        </edge>
        <edge id="-1266002304">
            <lane id="-1266002304_0">
                <vehicle id="9" pos="1.58" speed="0.00"/>
            </lane>
        </edge>
        <edge id="-1328731396">
            <lane id="-1328731396_0">
                <vehicle id="0" pos="46.88" speed="5.34"/>
            </lane>
        </edge>
        <edge id="-37731777#5">
            <lane id="-37731777#5_0">
                <vehicle id="6" pos="5.34" speed="5.77"/>
            </lane>
        </edge>
        <edge id="-50536193#3">
            <lane id="-50536193#3_0">
                <vehicle id="7" pos="10.24" speed="3.82"/>
            </lane>
        </edge>
        <edge id="-597555258#1">
            <lane id="-597555258#1_0">
                <vehicle id="5" pos="17.58" speed="2.11"/>
            </lane>
        </edge>
        <edge id="597567672#4">
            <lane id="597567672#4_0">
                <vehicle id="3" pos="32.63" speed="4.82"/>
            </lane>
        </edge>
    </timestep>
    <timestep time="10.00">
        <edge id=":11533456832_0">
            <lane id=":11533456832_0_0">
                <vehicle id="9" pos="2.01" speed="2.01"/>
            </lane>
        </edge>
        <edge id=":9582307209_8">
            <lane id=":9582307209_8_0">
                <vehicle id="5" pos="0.93" speed="2.02"/>
            </lane>
        </edge>
        <edge id=":9582451151_2">
            <lane id=":9582451151_2_0">
                <vehicle id="8" pos="4.03" speed="2.49"/>
            </lane>
        </edge>
        <edge id="-1328731396">
            <lane id="-1328731396_0">
                <vehicle id="0" pos="52.20" speed="5.31"/>
            </lane>
        </edge>
        <edge id="-37731777#5">
            <lane id="-37731777#5_0">
                <vehicle id="6" pos="12.54" speed="7.20"/>
            </lane>
        </edge>
        <edge id="-50536193#3">
            <lane id="-50536193#3_0">
                <vehicle id="7" pos="16.32" speed="6.09"/>
            </lane>
        </edge>
        <edge id="597567672#4">
            <lane id="597567672#4_0">
                <vehicle id="3" pos="37.45" speed="4.82"/>
            </lane>
        </edge>
        <edge id="889984928#1">
            <lane id="889984928#1_0">
                <vehicle id="4" pos="1.71" speed="4.77"/>
            </lane>
        </edge>
    </timestep>
    <timestep time="11.00">
        <edge id=":11533456832_0">
            <lane id=":11533456832_0_0">
                <vehicle id="9" pos="5.41" speed="3.40"/>
            </lane>
        </edge>
        <edge id=":9582307209_8">
            <lane id=":9582307209_8_0">
                <vehicle id="5" pos="2.90" speed="1.97"/>
            </lane>
        </edge>
        <edge id="-1328731396">
            <lane id="-1328731396_0">
                <vehicle id="0" pos="57.11" speed="4.92"/>
            </lane>
        </edge>
        <edge id="-37731777#5">
            <lane id="-37731777#5_0">
                <vehicle id="6" pos="22.34" speed="9.80"/>
            </lane>
        </edge>
        <edge id="-50536193#3">
            <lane id="-50536193#3_0">
                <vehicle id="7" pos="24.20" speed="7.88"/>
            </lane>
        </edge>
        <edge id="1040758930#0">
            <lane id="1040758930#0_0">
                <vehicle id="8" pos="2.07" speed="2.71"/>
            </lane>
        </edge>
        <edge id="597567672#4">
            <lane id="597567672#4_0">
                <vehicle id="3" pos="43.02" speed="5.58"/>
            </lane>
        </edge>
        <edge id="889984928#1">
            <lane id="889984928#1_0">
                <vehicle id="4" pos="8.48" speed="6.77"/>
            </lane>
        </edge>
    </timestep>
    <timestep time="12.00">
        <edge id=":10127768066_5">
            <lane id=":10127768066_5_0">
                <vehicle id="8" pos="0.10" speed="2.90"/>
            </lane>
        </edge>
        <edge id=":9582451151_5">
            <lane id=":9582451151_5_0">
                <vehicle id="7" pos="7.71" speed="10.11"/>
            </lane>
        </edge>
        <edge id="-1328731396">
            <lane id="-1328731396_0">
                <vehicle id="0" pos="62.26" speed="5.15"/>
            </lane>
        </edge>
        <edge id="-37731777#5">
            <lane id="-37731777#5_0">
                <vehicle id="6" pos="34.31" speed="11.97"/>
            </lane>
        </edge>
        <edge id="1266002302#2">
            <lane id="1266002302#2_0">
                <vehicle id="9" pos="1.64" speed="3.85"/>
            </lane>
        </edge>
        <edge id="597555258#1">
            <lane id="597555258#1_0">
                <vehicle id="5" pos="0.29" speed="2.06"/>
            </lane>
        </edge>
        <edge id="597567672#4">
            <lane id="597567672#4_0">
                <vehicle id="3" pos="48.08" speed="5.06"/>
            </lane>
        </edge>
        <edge id="889984928#1">
            <lane id="889984928#1_0">
                <vehicle id="4" pos="16.58" speed="8.10"/>
            </lane>
        </edge>
    </timestep>
    <timestep time="13.00">
        <edge id=":10127768066_5">
            <lane id=":10127768066_5_0">
                <vehicle id="8" pos="2.68" speed="2.58"/>
            </lane>
        </edge>
        <edge id=":11244136048_1">
            <lane id=":11244136048_1_0">
                <vehicle id="4" pos="1.73" speed="3.76"/>
            </lane>
        </edge>
        <edge id="-1328731396">
            <lane id="-1328731396_0">
                <vehicle id="0" pos="67.08" speed="4.82"/>
            </lane>
        </edge>
        <edge id="-37731777#5">
            <lane id="-37731777#5_0">
                <vehicle id="6" pos="43.03" speed="8.72"/>
            </lane>
        </edge>
        <edge id="-50536193#2">
            <lane id="-50536193#2_0">
                <vehicle id="7" pos="9.98" speed="11.47"/>
            </lane>
        </edge>
        <edge id="1266002302#2">
            <lane id="1266002302#2_0">
                <vehicle id="9" pos="4.31" speed="2.67"/>
            </lane>
        </edge>
        <edge id="597555258#1">
            <lane id="597555258#1_0">
                <vehicle id="5" pos="3.97" speed="3.69"/>
            </lane>
        </edge>
        <edge id="597567672#4">
            <lane id="597567672#4_0">
                <vehicle id="3" pos="52.81" speed="4.73"/>
            </lane>
        </edge>
    </timestep>
    <timestep time="14.00">
        <edge id=":6657853493_1">
            <lane id=":6657853493_1_0">
                <vehicle id="6" pos="2.56" speed="4.22"/>
            </lane>
        </edge>
        <edge id=":9317861758_5">
            <lane id=":9317861758_5_0">
                <vehicle id="9" pos="2.43" speed="2.83"/>
            </lane>
        </edge>
        <edge id="-1040758930#0">
            <lane id="-1040758930#0_0">
                <vehicle id="8" pos="2.49" speed="3.04"/>
            </lane>
        </edge>
        <edge id="-1328731396">
            <lane id="-1328731396_0">
                <vehicle id="0" pos="72.76" speed="5.68"/>
            </lane>
        </edge>
        <edge id="-50536193#2">
            <lane id="-50536193#2_0">
                <vehicle id="7" pos="21.66" speed="11.68"/>
            </lane>
        </edge>
        <edge id="-889984928#1">
            <lane id="-889984928#1_0">
                <vehicle id="4" pos="0.09" speed="3.04"/>
            </lane>
        </edge>
        <edge id="597555258#1">
            <lane id="597555258#1_0">
                <vehicle id="5" pos="8.36" speed="4.38"/>
            </lane>
        </edge>
        <edge id="597567672#4">
            <lane id="597567672#4_0">
                <vehicle id="3" pos="58.60" speed="5.79"/>
            </lane>
        </edge>
    </timestep>
    <timestep time="15.00">
        <edge id=":6657853493_7">
            <lane id=":6657853493_7_0">
                <vehicle id="6" pos="5.23" speed="5.68"/>
            </lane>
        </edge>
        <edge id=":9317861758_5">
            <lane id=":9317861758_5_0">
                <vehicle id="9" pos="4.27" speed="1.83"/>
            </lane>
        </edge>
        <edge id="-1328731396">
            <lane id="-1328731396_0">
                <vehicle id="0" pos="78.42" speed="5.65"/>
            </lane>
        </edge>
        <edge id="-50536193#2">
            <lane id="-50536193#2_0">
                <vehicle id="7" pos="30.23" speed="8.57"/>
            </lane>
        </edge>
        <edge id="-889984928#1">
            <lane id="-889984928#1_0">
                <vehicle id="4" pos="5.13" speed="5.03"/>
            </lane>
        </edge>
        <edge id="597555258#1">
            <lane id="597555258#1_0">
                <vehicle id="5" pos="12.96" speed="4.60"/>
            </lane>
        </edge>
        <edge id="597567672#4">
            <lane id="597567672#4_0">
                <vehicle id="3" pos="63.99" speed="5.39"/>
            </lane>
        </edge>
    </timestep>
    <timestep time="16.00">
        <edge id=":642960790_6">
            <lane id=":642960790_6_0">
                <vehicle id="7" pos="0.96" speed="4.17"/>
            </lane>
        </edge>
        <edge id="-1266002302#2">
            <lane id="-1266002302#2_0">
                <vehicle id="9" pos="1.78" speed="2.19"/>
            </lane>
        </edge>
        <edge id="-1328731396">
            <lane id="-1328731396_0">
                <vehicle id="0" pos="83.36" speed="4.94"/>
            </lane>
        </edge>
        <edge id="-889984928#1">
            <lane id="-889984928#1_0">
                <vehicle id="4" pos="11.65" speed="6.52"/>
            </lane>
        </edge>
        <edge id="597555258#1">
            <lane id="597555258#1_0">
                <vehicle id="5" pos="17.41" speed="4.45"/>
            </lane>
        </edge>
        <edge id="597567672#4">
            <lane id="597567672#4_0">
                <vehicle id="3" pos="69.79" speed="5.79"/>
            </lane>
        </edge>
    </timestep>
    <timestep time="17.00">
        <edge id=":642960790_7">
            <lane id=":642960790_7_0">
                <vehicle id="7" pos="2.54" speed="4.85"/>
            </lane>
        </edge>
        <edge id=":8341638140_6">
            <lane id=":8341638140_6_0">
                <vehicle id="5" pos="3.21" speed="4.48"/>
            </lane>
        </edge>
        <edge id="-1328731396">
            <lane id="-1328731396_0">
                <vehicle id="0" pos="89.00" speed="5.64"/>
            </lane>
        </edge>
        <edge id="-889984928#1">
            <lane id="-889984928#1_0">
                <vehicle id="4" pos="20.18" speed="8.53"/>
            </lane>
        </edge>
        <edge id="597567672#4">
            <lane id="597567672#4_0">
                <vehicle id="3" pos="74.96" speed="5.17"/>
            </lane>
        </edge>
    </timestep>
    <timestep time="18.00">
        <edge id=":8341638140_6">
            <lane id=":8341638140_6_0">
                <vehicle id="5" pos="7.56" speed="4.35"/>
            </lane>
        </edge>
        <edge id="-1328731396">
            <lane id="-1328731396_0">
                <vehicle id="0" pos="94.01" speed="5.00"/>
            </lane>
        </edge>
        <edge id="-597555258#3">
            <lane id="-597555258#3_0">
                <vehicle id="7" pos="0.31" speed="4.83"/>
            </lane>
        </edge>
        <edge id="597567672#4">
            <lane id="597567672#4_0">
                <vehicle id="3" pos="80.80" speed="5.84"/>
            </lane>
        </edge>
    </timestep>
    <timestep time="19.00">
        <edge id=":8341638140_6">
            <lane id=":8341638140_6_0">
                <vehicle id="5" pos="12.16" speed="4.59"/>
            </lane>
        </edge>
        <edge id="-1328731396">
            <lane id="-1328731396_0">
                <vehicle id="0" pos="98.75" speed="4.74"/>
            </lane>
        </edge>
        <edge id="597567672#4">
            <lane id="597567672#4_0">
                <vehicle id="3" pos="86.50" speed="5.70"/>
            </lane>
        </edge>
    </timestep>
    <timestep time="20.00">
        <edge id="-1328731396">
            <lane id="-1328731396_0">
                <vehicle id="0" pos="104.27" speed="5.53"/>
            </lane>
        </edge>
        <edge id="597567672#4">
            <lane id="597567672#4_0">
                <vehicle id="3" pos="91.35" speed="4.85"/>
            </lane>
        </edge>
        <edge id="897504198">
            <lane id="897504198_0">
                <vehicle id="5" pos="3.45" speed="3.84"/>
            </lane>
        </edge>
    </timestep>
    <timestep time="21.00">
        <edge id=":5689391007_0">
            <lane id=":5689391007_0_0">
                <vehicle id="3" pos="0.59" speed="3.69"/>
            </lane>
        </edge>
        <edge id="-1328731396">
            <lane id="-1328731396_0">
                <vehicle id="0" pos="110.07" speed="5.79"/>
            </lane>
        </edge>
        <edge id="897504198">
            <lane id="897504198_0">
                <vehicle id="5" pos="7.11" speed="3.66"/>
            </lane>
        </edge>
    </timestep>
    <timestep time="22.00">
        <edge id=":5689391007_0">
            <lane id=":5689391007_0_0">
                <vehicle id="3" pos="3.28" speed="2.69"/>
            </lane>
        </edge>
        <edge id="-1328731396">
            <lane id="-1328731396_0">
                <vehicle id="0" pos="114.68" speed="4.61"/>
            </lane>
        </edge>
        <edge id="897504198">
            <lane id="897504198_0">
                <vehicle id="5" pos="11.28" speed="4.17"/>
            </lane>
        </edge>
    </timestep>
    <timestep time="23.00">
        <edge id=":4736525839_1">
            <lane id=":4736525839_1_0">
                <vehicle id="0" pos="1.89" speed="5.62"/>
            </lane>
        </edge>
        <edge id="-597567672#4">
            <lane id="-597567672#4_0">
                <vehicle id="3" pos="2.03" speed="3.41"/>
            </lane>
        </edge>
        <edge id="897504198">
            <lane id="897504198_0">
                <vehicle id="5" pos="15.68" speed="4.40"/>
            </lane>
        </edge>
    </timestep>
    <timestep time="24.00">
        <edge id=":4736525839_9">
            <lane id=":4736525839_9_0">
                <vehicle id="0" pos="4.14" speed="5.50"/>
            </lane>
        </edge>
        <edge id="-597567672#4">
            <lane id="-597567672#4_0">
                <vehicle id="3" pos="7.94" speed="5.92"/>
            </lane>
        </edge>
        <edge id="897504198">
            <lane id="897504198_0">
                <vehicle id="5" pos="19.41" speed="3.73"/>
            </lane>
        </edge>
    </timestep>
    <timestep time="25.00">
        <edge id="-597567672#4">
            <lane id="-597567672#4_0">
                <vehicle id="3" pos="13.51" speed="5.57"/>
            </lane>
        </edge>
        <edge id="889984907">
            <lane id="889984907_0">
                <vehicle id="0" pos="2.12" speed="5.61"/>
            </lane>
        </edge>
        <edge id="897504198">
            <lane id="897504198_0">
                <vehicle id="5" pos="22.84" speed="3.43"/>
            </lane>
        </edge>
    </timestep>
    <timestep time="26.00">
        <edge id="-597567672#4">
            <lane id="-597567672#4_0">
                <vehicle id="3" pos="18.31" speed="4.80"/>
            </lane>
        </edge>
        <edge id="889984907">
            <lane id="889984907_0">
                <vehicle id="0" pos="7.54" speed="5.41"/>
            </lane>
        </edge>
        <edge id="897504198">
            <lane id="897504198_0">
                <vehicle id="5" pos="27.37" speed="4.53"/>
            </lane>
        </edge>
    </timestep>
    <timestep time="27.00">
        <edge id="-597567672#4">
            <lane id="-597567672#4_0">
                <vehicle id="3" pos="24.11" speed="5.80"/>
            </lane>
        </edge>
        <edge id="889984907">
            <lane id="889984907_0">
                <vehicle id="0" pos="13.26" speed="5.73"/>
            </lane>
        </edge>
        <edge id="897504198">
            <lane id="897504198_0">
                <vehicle id="5" pos="31.92" speed="4.55"/>
            </lane>
        </edge>
    </timestep>
    <timestep time="28.00">
        <edge id="-597567672#4">
            <lane id="-597567672#4_0">
                <vehicle id="3" pos="29.08" speed="4.96"/>
            </lane>
        </edge>
        <edge id="889984907">
            <lane id="889984907_0">
                <vehicle id="0" pos="18.38" speed="5.12"/>
            </lane>
        </edge>
        <edge id="897504198">
            <lane id="897504198_0">
                <vehicle id="5" pos="36.21" speed="4.28"/>
            </lane>
        </edge>
    </timestep>
    <timestep time="29.00">
        <edge id="-597567672#4">
            <lane id="-597567672#4_0">
                <vehicle id="3" pos="34.30" speed="5.22"/>
            </lane>
        </edge>
        <edge id="889984907">
            <lane id="889984907_0">
                <vehicle id="0" pos="23.78" speed="5.40"/>
            </lane>
        </edge>
        <edge id="897504198">
            <lane id="897504198_0">
                <vehicle id="5" pos="40.48" speed="4.28"/>
            </lane>
        </edge>
    </timestep>
    <timestep time="30.00">
        <edge id="-597567672#4">
            <lane id="-597567672#4_0">
                <vehicle id="3" pos="39.71" speed="5.42"/>
            </lane>
        </edge>
        <edge id="889984907">
            <lane id="889984907_0">
                <vehicle id="0" pos="29.55" speed="5.76"/>
            </lane>
        </edge>
        <edge id="897504198">
            <lane id="897504198_0">
                <vehicle id="5" pos="44.49" speed="4.01"/>
            </lane>
        </edge>
    </timestep>
    <timestep time="31.00">
        <edge id="-597567672#4">
            <lane id="-597567672#4_0">
                <vehicle id="3" pos="45.02" speed="5.30"/>
            </lane>
        </edge>
        <edge id="889984907">
            <lane id="889984907_0">
                <vehicle id="0" pos="35.35" speed="5.80"/>
            </lane>
        </edge>
        <edge id="897504198">
            <lane id="897504198_0">
                <vehicle id="5" pos="48.22" speed="3.73"/>
            </lane>
        </edge>
    </timestep>
    <timestep time="32.00">
        <edge id="-597567672#4">
            <lane id="-597567672#4_0">
                <vehicle id="3" pos="50.67" speed="5.65"/>
            </lane>
        </edge>
        <edge id="889984907">
            <lane id="889984907_0">
                <vehicle id="0" pos="40.37" speed="5.02"/>
            </lane>
        </edge>
        <edge id="897504198">
            <lane id="897504198_0">
                <vehicle id="5" pos="52.38" speed="4.16"/>
            </lane>
        </edge>
    </timestep>
    <timestep time="33.00">
        <edge id="-597567672#4">
            <lane id="-597567672#4_0">
                <vehicle id="3" pos="56.62" speed="5.95"/>
            </lane>
        </edge>
        <edge id="889984907">
            <lane id="889984907_0">
                <vehicle id="0" pos="46.13" speed="5.76"/>
            </lane>
        </edge>
        <edge id="897504198">
            <lane id="897504198_0">
                <vehicle id="5" pos="56.07" speed="3.69"/>
            </lane>
        </edge>
    </timestep>
    <timestep time="34.00">
        <edge id="-597567672#4">
            <lane id="-597567672#4_0">
                <vehicle id="3" pos="62.55" speed="5.93"/>
            </lane>
        </edge>
        <edge id="889984907">
            <lane id="889984907_0">
                <vehicle id="0" pos="51.28" speed="5.15"/>
            </lane>
        </edge>
        <edge id="897504198">
            <lane id="897504198_0">
                <vehicle id="5" pos="59.55" speed="3.48"/>
            </lane>
        </edge>
    </timestep>
    <timestep time="35.00">
        <edge id="-597567672#4">
            <lane id="-597567672#4_0">
                <vehicle id="3" pos="67.65" speed="5.10"/>
            </lane>
        </edge>
        <edge id="889984907">
            <lane id="889984907_0">
                <vehicle id="0" pos="57.02" speed="5.73"/>
            </lane>
        </edge>
        <edge id="897504198">
            <lane id="897504198_0">
                <vehicle id="5" pos="63.51" speed="3.96"/>
            </lane>
        </edge>
    </timestep>
    <timestep time="36.00">
        <edge id="-597567672#4">
            <lane id="-597567672#4_0">
                <vehicle id="3" pos="73.07" speed="5.42"/>
            </lane>
        </edge>
        <edge id="889984907">
            <lane id="889984907_0">
                <vehicle id="0" pos="62.52" speed="5.50"/>
            </lane>
        </edge>
        <edge id="897504198">
            <lane id="897504198_0">
                <vehicle id="5" pos="67.00" speed="3.50"/>
            </lane>
        </edge>
    </timestep>
    <timestep time="37.00">
        <edge id=":8272696629_0">
            <lane id=":8272696629_0_0">
                <vehicle id="0" pos="2.31" speed="3.60"/>
            </lane>
        </edge>
        <edge id="-597567672#4">