<?xml version="1.0" encoding="UTF-8"?>

<!-- generated on 2025-04-22 15:55:24 by Eclipse SUMO GUI Version 1.12.0
<configuration xmlns:xsi="http://www.w3.org/2001/XMLSchema-instance" xsi:noNamespaceSchemaLocation="http://sumo.dlr.de/xsd/sumoConfiguration.xsd">

    <input>
        <net-file value="./dataset/HUST/net.xml"/>
        <route-files value="./dataset/HUST/routes.xml"/>
    </input>

    <output>
        <netstate-dump value="./dataset/HUST/netstate.xml"/>
        <tripinfo-output value="./dataset/HUST/tripinfo.xml"/>
    </output>

    <time>
        <begin value="0"/>
        <end value="1000"/>
    </time>

    <traci_server>
        <remote-port value="33993"/>
    </traci_server>

</configuration>
-->

<netstate xmlns:xsi="http://www.w3.org/2001/XMLSchema-instance" xsi:noNamespaceSchemaLocation="http://sumo.dlr.de/xsd/netstate_file.xsd">
    <timestep time="0.00">
        <edge id="597567671#5">
            <lane id="597567671#5_0">
                <vehicle id="0" pos="5.10" speed="0.00"/>
            </lane>
        </edge>
    </timestep>
    <timestep time="1.00">
        <edge id="-905363915#9">
            <lane id="-905363915#9_0">
                <vehicle id="1" pos="1.33" speed="0.00"/>
            </lane>
        </edge>
        <edge id="597567671#5">
            <lane id="597567671#5_0">
                <vehicle id="0" pos="6.73" speed="1.63"/>
            </lane>
        </edge>
    </timestep>
    <timestep time="2.00">
        <edge id=":11101880641_8">
            <lane id=":11101880641_8_0">
                <vehicle id="1" pos="1.55" speed="1.55"/>
            </lane>
        </edge>
        <edge id="1211217606#1">
            <lane id="1211217606#1_0">
                <vehicle id="2" pos="0.20" speed="0.00"/>
            </lane>
        </edge>
        <edge id="597567671#5">
            <lane id="597567671#5_0">
                <vehicle id="0" pos="10.00" speed="3.27"/>
            </lane>
        </edge>
    </timestep>
    <timestep time="3.00">
        <edge id="597567671#5">
            <lane id="597567671#5_0">
                <vehicle id="0" pos="15.00" speed="5.00"/>
            </lane>
        </edge>
        <edge id="702927021">
            <lane id="702927021_0">
                <vehicle id="2" pos="1.12" speed="1.96"/>
            </lane>
        </edge>
        <edge id="905363915#9">
            <lane id="905363915#9_0">
                <vehicle id="1" pos="0.30" speed="3.42"/>
            </lane>
        </edge>
    </timestep>
    <timestep time="4.00">
        <edge id=":11101880643_1">
            <lane id=":11101880643_1_0">
                <vehicle id="1" pos="3.35" speed="4.38"/>
            </lane>
        </edge>
        <edge id="37370971#2">
            <lane id="37370971#2_0">
                <vehicle id="4" pos="5.10" speed="0.00"/>
            </lane>
            <lane id="37370971#2_1"/>
            <lane id="37370971#2_2"/>
            <lane id="37370971#2_3"/>
        </edge>
        <edge id="597567671#5">
            <lane id="597567671#5_0">
                <vehicle id="0" pos="20.06" speed="5.06"/>
            </lane>
        </edge>
        <edge id="702927021">
            <lane id="702927021_0">
                <vehicle id="2" pos="5.09" speed="3.97"/>
            </lane>
        </edge>
    </timestep>
    <timestep time="5.00">
        <edge id=":11101880643_1">
            <lane id=":11101880643_1_0">
                <vehicle id="1" pos="7.97" speed="4.61"/>
            </lane>
        </edge>
        <edge id="37370971#2">
            <lane id="37370971#2_0">
                <vehicle id="4" pos="7.28" speed="2.18"/>
            </lane>
            <lane id="37370971#2_1"/>
            <lane id="37370971#2_2"/>
            <lane id="37370971#2_3"/>
        </edge>
        <edge id="597567671#5">
            <lane id="597567671#5_0">
                <vehicle id="0" pos="25.33" speed="5.27"/>
            </lane>
        </edge>
        <edge id="702927021">
            <lane id="702927021_0">
                <vehicle id="2" pos="10.89" speed="5.80"/>
            </lane>
        </edge>
    </timestep>
    <timestep time="6.00">
        <edge id=":6601172990_0">
            <lane id=":6601172990_0_0">
                <vehicle id="2" pos="1.80" speed="7.33"/>
            </lane>
        </edge>
        <edge id="1059471076#0">
            <lane id="1059471076#0_0">
                <vehicle id="6" pos="5.10" speed="0.00"/>
            </lane>
        </edge>
        <edge id="1196399799#0">
            <lane id="1196399799#0_0">
                <vehicle id="1" pos="1.86" speed="4.05"/>
            </lane>
        </edge>
        <edge id="37370971#2">
            <lane id="37370971#2_0"/>
            <lane id="37370971#2_1">
                <vehicle id="4" pos="11.90" speed="4.62"/>
            </lane>
            <lane id="37370971#2_2"/>
            <lane id="37370971#2_3"/>
        </edge>
        <edge id="597567671#5">
            <lane id="597567671#5_0">
                <vehicle id="0" pos="30.62" speed="5.29"/>
            </lane>
        </edge>
    </timestep>
    <timestep time="7.00">
        <edge id=":6601172990_0">
            <lane id=":6601172990_0_0">
                <vehicle id="2" pos="8.28" speed="6.48"/>
            </lane>
        </edge>
        <edge id="1059471076#0">
            <lane id="1059471076#0_0">
                <vehicle id="6" pos="7.42" speed="2.32"/>
            </lane>
        </edge>
        <edge id="1196399799#0">
            <lane id="1196399799#0_0">
                <vehicle id="1" pos="6.19" speed="4.33"/>
            </lane>
        </edge>
        <edge id="38136736#6">
            <lane id="38136736#6_0">
                <vehicle id="7" pos="5.10" speed="0.00"/>
            </lane>
        </edge>
        <edge id="597567671#5">
            <lane id="597567671#5_0">
                <vehicle id="0" pos="35.66" speed="5.04"/>
            </lane>
        </edge>
        <edge id="708964307">
            <lane id="708964307_0"/>
            <lane id="708964307_1"/>
            <lane id="708964307_2">
                <vehicle id="4" pos="2.25" speed="6.16"/>
            </lane>
            <lane id="708964307_3"/>
        </edge>
    </timestep>
    <timestep time="8.00">
        <edge id="-863044702#1">
            <lane id="-863044702#1_0">
                <vehicle id="2" pos="0.06" speed="1.98"/>
            </lane>
        </edge>
        <edge id="1059471076#0">
            <lane id="1059471076#0_0">
                <vehicle id="6" pos="12.21" speed="4.78"/>
            </lane>
        </edge>
        <edge id="1196399799#0">
            <lane id="1196399799#0_0">
                <vehicle id="1" pos="11.00" speed="4.81"/>
            </lane>
        </edge>
        <edge id="37862085">
            <lane id="37862085_0">
                <vehicle id="8" pos="5.10" speed="0.00"/>
            </lane>
            <lane id="37862085_1"/>
        </edge>
        <edge id="38136736#6">
            <lane id="38136736#6_0">
                <vehicle id="7" pos="7.24" speed="2.14"/>
            </lane>
        </edge>
        <edge id="597567671#5">
            <lane id="597567671#5_0">
                <vehicle id="0" pos="40.28" speed="4.62"/>
            </lane>
        </edge>
        <edge id="708964307">
            <lane id="708964307_0"/>
            <lane id="708964307_1"/>
            <lane id="708964307_2">
                <vehicle id="4" pos="10.20" speed="7.95"/>
            </lane>
            <lane id="708964307_3"/>
        </edge>
    </timestep>
    <timestep time="9.00">
        <edge id="1059471076#0">
            <lane id="1059471076#0_0">
                <vehicle id="6" pos="17.06" speed="4.85"/>
            </lane>
        </edge>
        <edge id="1196399799#0">
            <lane id="1196399799#0_0">
                <vehicle id="1" pos="15.07" speed="4.07"/>
            </lane>
        </edge>
        <edge id="136258914#1">
            <lane id="136258914#1_0">
                <vehicle id="2" pos="0.34" speed="3.84"/>
            </lane>
            <lane id="136258914#1_1"/>
        </edge>
        <edge id="37862085">
            <lane id="37862085_0">
                <vehicle id="8" pos="6.89" speed="1.79"/>
            </lane>
            <lane id="37862085_1"/>
        </edge>
        <edge id="38136736#6">
            <lane id="38136736#6_0">
                <vehicle id="7" pos="10.79" speed="3.55"/>
            </lane>
        </edge>
        <edge id="597567671#5">
            <lane id="597567671#5_0">
                <vehicle id="0" pos="45.91" speed="5.64"/>
            </lane>
        </edge>
        <edge id="708964307">
            <lane id="708964307_0"/>
            <lane id="708964307_1"/>
            <lane id="708964307_2">
                <vehicle id="4" pos="20.26" speed="10.06"/>
            </lane>
            <lane id="708964307_3"/>
        </edge>
        <edge id="889095233#0">
            <lane id="889095233#0_0">
                <vehicle id="9" pos="5.10" speed="0.00"/>
            </lane>
        </edge>
    </timestep>
    <timestep time="10.00">
        <edge id="1059471076#0">
            <lane id="1059471076#0_0">
                <vehicle id="6" pos="21.98" speed="4.92"/>
            </lane>
        </edge>
        <edge id="1196399799#0">
            <lane id="1196399799#0_0">
                <vehicle id="1" pos="19.10" speed="4.03"/>
            </lane>
        </edge>
        <edge id="136258914#1">
            <lane id="136258914#1_0">
                <vehicle id="2" pos="5.76" speed="5.42"/>
            </lane>
            <lane id="136258914#1_1"/>
        </edge>
        <edge id="37862085">
            <lane id="37862085_0">
                <vehicle id="8" pos="10.65" speed="3.76"/>
            </lane>
            <lane id="37862085_1"/>
        </edge>
        <edge id="38136736#6">
            <lane id="38136736#6_0">
                <vehicle id="7" pos="15.88" speed="5.09"/>
            </lane>
        </edge>
        <edge id="597567671#5">
            <lane id="597567671#5_0">
                <vehicle id="0" pos="51.63" speed="5.72"/>
            </lane>
        </edge>
        <edge id="601468009#0">
            <lane id="601468009#0_0">
                <vehicle id="10" pos="5.10" speed="0.00"/>
            </lane>
        </edge>
        <edge id="708964307">
            <lane id="708964307_0"/>
            <lane id="708964307_1"/>
            <lane id="708964307_2">
                <vehicle id="4" pos="31.75" speed="11.49"/>
            </lane>
            <lane id="708964307_3"/>
        </edge>
        <edge id="889095233#0">
            <lane id="889095233#0_0">
                <vehicle id="9" pos="7.48" speed="2.38"/>
            </lane>
        </edge>
    </timestep>
    <timestep time="11.00">
        <edge id="-889984891">
            <lane id="-889984891_0">
                <vehicle id="11" pos="5.10" speed="0.00"/>
            </lane>
        </edge>
        <edge id="1059471076#0">
            <lane id="1059471076#0_0">
                <vehicle id="6" pos="26.80" speed="4.82"/>
            </lane>
        </edge>
        <edge id="1196399799#0">
            <lane id="1196399799#0_0">
                <vehicle id="1" pos="24.29" speed="5.19"/>
            </lane>
        </edge>
        <edge id="136258914#1">
            <lane id="136258914#1_0">
                <vehicle id="2" pos="12.79" speed="7.03"/>
            </lane>
            <lane id="136258914#1_1"/>
        </edge>
        <edge id="37862085">
            <lane id="37862085_0">
                <vehicle id="8" pos="16.14" speed="5.49"/>
            </lane>
            <lane id="37862085_1"/>
        </edge>
        <edge id="38136736#6">
            <lane id="38136736#6_0">
                <vehicle id="7" pos="22.59" speed="6.71"/>
            </lane>
        </edge>
        <edge id="597567671#5">
            <lane id="597567671#5_0">
                <vehicle id="0" pos="56.28" speed="4.64"/>
            </lane>
        </edge>
        <edge id="601468009#0">
            <lane id="601468009#0_0">
                <vehicle id="10" pos="6.53" speed="1.43"/>
            </lane>
        </edge>
        <edge id="708964306">
            <lane id="708964306_0"/>
            <lane id="708964306_1"/>
            <lane id="708964306_2">
                <vehicle id="4" pos="5.03" speed="13.79"/>
            </lane>
            <lane id="708964306_3"/>
        </edge>
        <edge id="889095233#0">
            <lane id="889095233#0_0">
                <vehicle id="9" pos="12.05" speed="4.58"/>
            </lane>
        </edge>
    </timestep>
    <timestep time="12.00">
        <edge id=":1495022753_1">
            <lane id=":1495022753_1_0">
                <vehicle id="2" pos="1.18" speed="9.24"/>
            </lane>
            <lane id=":1495022753_1_1"/>
        </edge>
        <edge id="-889984891">
            <lane id="-889984891_0">
                <vehicle id="11" pos="7.08" speed="1.98"/>
            </lane>
        </edge>
        <edge id="1059471076#0">
            <lane id="1059471076#0_0">
                <vehicle id="6" pos="32.19" speed="5.40"/>
            </lane>
        </edge>
        <edge id="1196399799#0">
            <lane id="1196399799#0_0">
                <vehicle id="1" pos="29.43" speed="5.14"/>
            </lane>
        </edge>
        <edge id="37862085">
            <lane id="37862085_0">
                <vehicle id="8" pos="23.51" speed="7.38"/>
            </lane>
            <lane id="37862085_1"/>
        </edge>
        <edge id="38136736#6">
            <lane id="38136736#6_0">
                <vehicle id="7" pos="31.25" speed="8.66"/>
            </lane>
        </edge>
        <edge id="597567671#5">
            <lane id="597567671#5_0">
                <vehicle id="0" pos="61.58" speed="5.30"/>
            </lane>
        </edge>
        <edge id="601468009#0">
            <lane id="601468009#0_0">
                <vehicle id="10" pos="10.57" speed="4.03"/>
            </lane>
        </edge>
        <edge id="708964306">
            <lane id="708964306_0"/>
            <lane id="708964306_1"/>
            <lane id="708964306_2">
                <vehicle id="4" pos="20.74" speed="15.70"/>
            </lane>
            <lane id="708964306_3"/>
        </edge>
        <edge id="889095233#0">
            <lane id="889095233#0_0">
                <vehicle id="9" pos="16.52" speed="4.47"/>
            </lane>
        </edge>
    </timestep>
    <timestep time="13.00">
        <edge id=":1495022753_1">
            <lane id=":1495022753_1_0">
                <vehicle id="2" pos="5.92" speed="4.74"/>
            </lane>
            <lane id=":1495022753_1_1"/>
        </edge>
        <edge id="-889984891">
            <lane id="-889984891_0">
                <vehicle id="11" pos="11.27" speed="4.19"/>
            </lane>
        </edge>
        <edge id="1059471076#0">
            <lane id="1059471076#0_0">
                <vehicle id="6" pos="36.81" speed="4.61"/>
            </lane>
        </edge>
        <edge id="1196399799#0">
            <lane id="1196399799#0_0">
                <vehicle id="1" pos="33.48" speed="4.06"/>
            </lane>
        </edge>
        <edge id="1237202843">
            <lane id="1237202843_0">
                <vehicle id="13" pos="5.10" speed="0.00"/>
            </lane>
        </edge>
        <edge id="37862085">
            <lane id="37862085_0">
                <vehicle id="8" pos="33.07" speed="9.56"/>
            </lane>
            <lane id="37862085_1"/>
        </edge>
        <edge id="38136736#6">
            <lane id="38136736#6_0">
                <vehicle id="7" pos="39.37" speed="8.12"/>
            </lane>
        </edge>
        <edge id="597567671#5">
            <lane id="597567671#5_0">
                <vehicle id="0" pos="67.01" speed="5.43"/>
            </lane>
        </edge>
        <edge id="601468009#0">
            <lane id="601468009#0_0">
                <vehicle id="10" pos="16.77" speed="6.21"/>
            </lane>
        </edge>
        <edge id="708964306">
            <lane id="708964306_0"/>
            <lane id="708964306_1"/>
            <lane id="708964306_2">
                <vehicle id="4" pos="38.17" speed="17.43"/>
            </lane>
            <lane id="708964306_3"/>
        </edge>
        <edge id="889095233#0">
            <lane id="889095233#0_0">
                <vehicle id="9" pos="20.41" speed="3.88"/>
            </lane>
        </edge>
    </timestep>
    <timestep time="14.00">
        <edge id=":1495022752_4">
            <lane id=":1495022752_4_0">
                <vehicle id="2" pos="2.62" speed="4.87"/>
            </lane>
            <lane id=":1495022752_4_1"/>
            <lane id=":1495022752_4_2"/>
        </edge>
        <edge id=":6658873517_5">
            <lane id=":6658873517_5_0">
                <vehicle id="7" pos="1.92" speed="3.62"/>
            </lane>
        </edge>
        <edge id="-1289793258">
            <lane id="-1289793258_0">
                <vehicle id="14" pos="5.10" speed="0.00"/>
            </lane>
        </edge>
        <edge id="-889984891">
            <lane id="-889984891_0">
                <vehicle id="11" pos="14.77" speed="3.50"/>
            </lane>
        </edge>
        <edge id="1059471076#0">
            <lane id="1059471076#0_0">
                <vehicle id="6" pos="42.15" speed="5.34"/>
            </lane>
        </edge>
        <edge id="1196399799#0">
            <lane id="1196399799#0_0">
                <vehicle id="1" pos="37.76" speed="4.27"/>
            </lane>
        </edge>
        <edge id="1237202843">
            <lane id="1237202843_0">
                <vehicle id="13" pos="6.42" speed="1.32"/>
            </lane>
        </edge>
        <edge id="37862085">
            <lane id="37862085_0">
                <vehicle id="8" pos="45.08" speed="12.01"/>
            </lane>
            <lane id="37862085_1"/>
        </edge>
        <edge id="597567671#5">
            <lane id="597567671#5_0">
                <vehicle id="0" pos="72.10" speed="5.09"/>
            </lane>
        </edge>
        <edge id="601468009#0">
            <lane id="601468009#0_0">
                <vehicle id="10" pos="25.41" speed="8.63"/>
            </lane>
        </edge>
        <edge id="708964306">
            <lane id="708964306_0"/>
            <lane id="708964306_1"/>
            <lane id="708964306_2">
                <vehicle id="4" pos="57.60" speed="19.43"/>
            </lane>
            <lane id="708964306_3"/>
        </edge>
        <edge id="889095233#0">
            <lane id="889095233#0_0">
                <vehicle id="9" pos="24.44" speed="4.04"/>
            </lane>
        </edge>
    </timestep>
    <timestep time="15.00">
        <edge id=":10134947830_3">
            <lane id=":10134947830_3_0">
                <vehicle id="7" pos="0.15" speed="3.03"/>
            </lane>
        </edge>
        <edge id=":1884807237_2">
            <lane id=":1884807237_2_0">
                <vehicle id="4" pos="3.37" speed="21.87"/>
            </lane>
            <lane id=":1884807237_2_1"/>
        </edge>
        <edge id="-1196399800#0">
            <lane id="-1196399800#0_0">
                <vehicle id="15" pos="5.10" speed="0.00"/>
            </lane>
        </edge>
        <edge id="-1289793258">
            <lane id="-1289793258_0">
                <vehicle id="14" pos="6.42" speed="1.32"/>
            </lane>
        </edge>
        <edge id="-889984891">
            <lane id="-889984891_0">
                <vehicle id="11" pos="18.74" speed="3.97"/>
            </lane>
        </edge>
        <edge id="1059471076#0">
            <lane id="1059471076#0_0">
                <vehicle id="6" pos="46.76" speed="4.61"/>
            </lane>
        </edge>
        <edge id="1196399799#0">
            <lane id="1196399799#0_0">
                <vehicle id="1" pos="42.57" speed="4.81"/>
            </lane>
        </edge>
        <edge id="1237202843">
            <lane id="1237202843_0">
                <vehicle id="13" pos="9.46" speed="3.03"/>
            </lane>
        </edge>
        <edge id="37862085">
            <lane id="37862085_0">
                <vehicle id="8" pos="58.67" speed="13.59"/>
            </lane>
            <lane id="37862085_1"/>
        </edge>
        <edge id="597567671#5">
            <lane id="597567671#5_0">
                <vehicle id="0" pos="76.86" speed="4.75"/>
            </lane>
        </edge>
        <edge id="601468009#0">
            <lane id="601468009#0_0">
                <vehicle id="10" pos="36.07" speed="10.67"/>
            </lane>
        </edge>
        <edge id="711379743#0">
            <lane id="711379743#0_0">
                <vehicle id="2" pos="1.52" speed="5.42"/>
            </lane>
            <lane id="711379743#0_1"/>
            <lane id="711379743#0_2"/>
            <lane id="711379743#0_3"/>
        </edge>
        <edge id="889095233#0">
            <lane id="889095233#0_0">
                <vehicle id="9" pos="29.03" speed="4.58"/>
            </lane>
        </edge>
    </timestep>
    <timestep time="16.00">
        <edge id=":10134947830_5">
            <lane id=":10134947830_5_0">
                <vehicle id="7" pos="1.48" speed="2.77"/>
            </lane>
        </edge>
        <edge id="-1196399800#0">
            <lane id="-1196399800#0_0">
                <vehicle id="15" pos="7.30" speed="2.20"/>
            </lane>
        </edge>
        <edge id="-1289793258">
            <lane id="-1289793258_0">
                <vehicle id="14" pos="10.24" speed="3.82"/>
            </lane>
        </edge>
        <edge id="-889984891">
            <lane id="-889984891_0">
                <vehicle id="11" pos="22.35" speed="3.61"/>
            </lane>
        </edge>
        <edge id="1059471076#0">
            <lane id="1059471076#0_0">
                <vehicle id="6" pos="52.09" speed="5.32"/>
            </lane>
        </edge>
        <edge id="1196399799#0">
            <lane id="1196399799#0_0">
                <vehicle id="1" pos="46.93" speed="4.36"/>
            </lane>
        </edge>
        <edge id="1237202843">
            <lane id="1237202843_0">
                <vehicle id="13" pos="13.91" speed="4.45"/>
            </lane>
        </edge>
        <edge id="37862085">
            <lane id="37862085_0">
                <vehicle id="8" pos="74.46" speed="15.79"/>
            </lane>
            <lane id="37862085_1"/>
        </edge>
        <edge id="597567671#5">
            <lane id="597567671#5_0">
                <vehicle id="0" pos="82.70" speed="5.85"/>
            </lane>
        </edge>
        <edge id="601468009#0">
            <lane id="601468009#0_0">
                <vehicle id="10" pos="48.92" speed="12.85"/>
            </lane>
        </edge>
        <edge id="709289368#0">
            <lane id="709289368#0_0">
                <vehicle id="16" pos="0.20" speed="0.00"/>
            </lane>
        </edge>
        <edge id="711379743#0">
            <lane id="711379743#0_0">
                <vehicle id="2" pos="9.14" speed="7.62"/>
            </lane>
            <lane id="711379743#0_1"/>
            <lane id="711379743#0_2"/>
            <lane id="711379743#0_3"/>
        </edge>
        <edge id="889095233#0">
            <lane id="889095233#0_0">
                <vehicle id="9" pos="33.83" speed="4.80"/>
            </lane>
        </edge>
        <edge id="965574225">
            <lane id="965574225_0">
                <vehicle id="4" pos="7.27" speed="23.26"/>
            </lane>
            <lane id="965574225_1"/>
        </edge>
    </timestep>
    <timestep time="17.00">
        <edge id=":10126209750_2">
            <lane id=":10126209750_2_0">
                <vehicle id="16" pos="2.21" speed="2.21"/>
            </lane>
        </edge>
        <edge id=":12353733522_1">
            <lane id=":12353733522_1_0">
                <vehicle id="2" pos="3.51" speed="9.50"/>
            </lane>
            <lane id=":12353733522_1_1"/>
            <lane id=":12353733522_1_2"/>
            <lane id=":12353733522_1_3"/>
        </edge>
        <edge id=":6658873517_3">
            <lane id=":6658873517_3_0">
                <vehicle id="7" pos="0.52" speed="2.46"/>
            </lane>
        </edge>
        <edge id=":9246563210_2">
            <lane id=":9246563210_2_0">
                <vehicle id="10" pos="7.14" speed="11.90"/>
            </lane>
        </edge>
        <edge id="-1196399800#0">
            <lane id="-1196399800#0_0">
                <vehicle id="15" pos="11.52" speed="4.22"/>
            </lane>
        </edge>
        <edge id="-1289793258">
            <lane id="-1289793258_0">
                <vehicle id="14" pos="15.61" speed="5.37"/>
            </lane>
        </edge>
        <edge id="-889984891">
            <lane id="-889984891_0">
                <vehicle id="11" pos="26.67" speed="4.33"/>
            </lane>
        </edge>
        <edge id="1059471076#0">
            <lane id="1059471076#0_0">
                <vehicle id="6" pos="57.72" speed="5.64"/>
            </lane>
        </edge>
        <edge id="1196399799#0">
            <lane id="1196399799#0_0">
                <vehicle id="1" pos="51.02" speed="4.08"/>
            </lane>
        </edge>
        <edge id="1237202843">
            <lane id="1237202843_0">
                <vehicle id="13" pos="19.34" speed="5.43"/>
            </lane>
        </edge>
        <edge id="37862085">
            <lane id="37862085_0">
                <vehicle id="8" pos="91.61" speed="17.15"/>
            </lane>
            <lane id="37862085_1"/>
        </edge>
        <edge id="597567671#5">
            <lane id="597567671#5_0">
                <vehicle id="0" pos="87.50" speed="4.80"/>
            </lane>
        </edge>
        <edge id="889095233#0">
            <lane id="889095233#0_0">
                <vehicle id="9" pos="37.55" speed="3.72"/>
            </lane>
        </edge>
        <edge id="947077276#2">
            <lane id="947077276#2_0">
                <vehicle id="17" pos="0.20" speed="0.00"/>
            </lane>
            <lane id="947077276#2_1"/>
        </edge>
        <edge id="965574225">
            <lane id="965574225_0">
                <vehicle id="4" pos="33.08" speed="25.81"/>
            </lane>
            <lane id="965574225_1"/>
        </edge>
    </timestep>
    <timestep time="18.00">
        <edge id=":1755146759_0">
            <lane id=":1755146759_0_0">
                <vehicle id="17" pos="2.02" speed="2.02"/>
            </lane>
            <lane id=":1755146759_0_1"/>
            <lane id=":1755146759_0_2"/>
        </edge>
        <edge id=":6658873517_3">
            <lane id=":6658873517_3_0">
                <vehicle id="7" pos="4.53" speed="4.01"/>
            </lane>
        </edge>
        <edge id=":8272664896_3">
            <lane id=":8272664896_3_0">
                <vehicle id="11" pos="1.24" speed="4.63"/>
            </lane>
        </edge>
        <edge id="-1196399800#0">
            <lane id="-1196399800#0_0">
                <vehicle id="15" pos="17.33" speed="5.81"/>
            </lane>
        </edge>
        <edge id="-1289793258">
            <lane id="-1289793258_0">
                <vehicle id="14" pos="20.51" speed="4.90"/>
            </lane>
        </edge>
        <edge id="-601468010">
            <lane id="-601468010_0">
                <vehicle id="18" pos="5.10" speed="0.00"/>
            </lane>
        </edge>
        <edge id="1059471076#0">
            <lane id="1059471076#0_0">
                <vehicle id="6" pos="62.65" speed="4.92"/>
            </lane>
        </edge>
        <edge id="1196399799#0">
            <lane id="1196399799#0_0">
                <vehicle id="1" pos="55.92" speed="4.91"/>
            </lane>
        </edge>
        <edge id="1237202843">
            <lane id="1237202843_0">
                <vehicle id="13" pos="24.47" speed="5.13"/>
            </lane>
        </edge>
        <edge id="178102535">
            <lane id="178102535_0">
                <vehicle id="4" pos="2.00" speed="28.01"/>
            </lane>
            <lane id="178102535_1"/>
        </edge>
        <edge id="37862085">
            <lane id="37862085_0">
                <vehicle id="8" pos="110.61" speed="19.00"/>
            </lane>
            <lane id="37862085_1"/>
        </edge>
        <edge id="597567671#5">
            <lane id="597567671#5_0">
                <vehicle id="0" pos="92.22" speed="4.72"/>
            </lane>
        </edge>
        <edge id="601468009#1">
            <lane id="601468009#1_0">
                <vehicle id="10" pos="8.21" speed="12.55"/>
            </lane>
        </edge>
        <edge id="709289368#1">
            <lane id="709289368#1_0">
                <vehicle id="16" pos="1.74" speed="3.65"/>
            </lane>
        </edge>
        <edge id="711379743#1">
            <lane id="711379743#1_0">
                <vehicle id="2" pos="6.22" speed="12.10"/>
            </lane>
            <lane id="711379743#1_1"/>
            <lane id="711379743#1_2"/>
            <lane id="711379743#1_3"/>
        </edge>
        <edge id="889095233#0">
            <lane id="889095233#0_0">
                <vehicle id="9" pos="41.75" speed="4.20"/>
            </lane>
        </edge>
    </timestep>
    <timestep time="19.00">
        <edge id=":1755146759_0">
            <lane id=":1755146759_0_0">
                <vehicle id="17" pos="6.14" speed="4.12"/>
            </lane>
            <lane id=":1755146759_0_1"/>
            <lane id=":1755146759_0_2"/>
        </edge>
        <edge id=":5689391005_0">
            <lane id=":5689391005_0_0">
                <vehicle id="0" pos="0.62" speed="3.08"/>