<?xml version="1.0" encoding="UTF-8"?>

<!-- generated on 2025-04-22 16:45:06 by Eclipse SUMO GUI Version 1.12.0
<configuration xmlns:xsi="http://www.w3.org/2001/XMLSchema-instance" xsi:noNamespaceSchemaLocation="http://sumo.dlr.de/xsd/sumoConfiguration.xsd">

    <input>
        <net-file value="./dataset/HUST/net.xml"/>
        <route-files value="./dataset/HUST/routes.xml"/>
    </input>

    <output>
        <netstate-dump value="./dataset/HUST/netstate.xml"/>
        <tripinfo-output value="./dataset/HUST/tripinfo.xml"/>
    </output>

    <time>
        <begin value="0"/>
        <end value="1000"/>
    </time>

    <traci_server>
        <remote-port value="53053"/>
    </traci_server>

</configuration>
-->

<netstate xmlns:xsi="http://www.w3.org/2001/XMLSchema-instance" xsi:noNamespaceSchemaLocation="http://sumo.dlr.de/xsd/netstate_file.xsd">
    <timestep time="0.00">
        <edge id="597567671#5">
            <lane id="597567671#5_0">
                <vehicle id="0" pos="5.10" speed="0.00"/>
            </lane>
        </edge>
    </timestep>
    <timestep time="1.00">
        <edge id="-905363915#9">
            <lane id="-905363915#9_0">
                <vehicle id="1" pos="1.33" speed="0.00"/>
            </lane>
        </edge>
        <edge id="597567671#5">
            <lane id="597567671#5_0">
                <vehicle id="0" pos="6.73" speed="1.63"/>
            </lane>
        </edge>
    </timestep>
    <timestep time="2.00">
        <edge id=":11101880641_8">
            <lane id=":11101880641_8_0">
                <vehicle id="1" pos="1.55" speed="1.55"/>
            </lane>
        </edge>
        <edge id="1211217606#1">
            <lane id="1211217606#1_0">
                <vehicle id="2" pos="0.20" speed="0.00"/>
            </lane>
        </edge>
        <edge id="597567671#5">
            <lane id="597567671#5_0">
                <vehicle id="0" pos="10.00" speed="3.27"/>
            </lane>
        </edge>
    </timestep>
</netstate>
