<?xml version="1.0" encoding="UTF-8"?>

<!-- generated on 2025-04-15 13:23:25 by Eclipse SUMO GUI Version 1.12.0
<configuration xmlns:xsi="http://www.w3.org/2001/XMLSchema-instance" xsi:noNamespaceSchemaLocation="http://sumo.dlr.de/xsd/sumoConfiguration.xsd">

    <input>
        <net-file value="./dataset/HUST/net.xml"/>
        <route-files value="./dataset/HUST/routes.xml"/>
    </input>

    <output>
        <netstate-dump value="./dataset/HUST/netstate.xml"/>
        <tripinfo-output value="./dataset/HUST/tripinfo.xml"/>
    </output>

    <time>
        <begin value="0"/>
        <end value="1000"/>
    </time>

    <traci_server>
        <remote-port value="43931"/>
    </traci_server>

</configuration>
-->

<tripinfos xmlns:xsi="http://www.w3.org/2001/XMLSchema-instance" xsi:noNamespaceSchemaLocation="http://sumo.dlr.de/xsd/tripinfo_file.xsd">
    <tripinfo id="1" depart="1.00" departLane="-38136736#13_0" departPos="5.10" departSpeed="0.00" departDelay="0.00" arrival="7.00" arrivalLane="708642539#1_0" arrivalPos="0.20" arrivalSpeed="3.21" duration="6.00" routeLength="18.98" waitingTime="0.00" waitingCount="0" stopTime="0.00" timeLoss="2.83" rerouteNo="0" devices="tripinfo_1" vType="DEFAULT_VEHTYPE" speedFactor="0.94" vaporized=""/>
    <tripinfo id="2" depart="2.00" departLane="-1339361806#0_0" departPos="0.20" departSpeed="0.00" departDelay="0.00" arrival="7.00" arrivalLane="889984922#1_0" arrivalPos="0.20" arrivalSpeed="3.68" duration="5.00" routeLength="13.54" waitingTime="0.00" waitingCount="0" stopTime="0.00" timeLoss="2.55" rerouteNo="0" devices="tripinfo_2" vType="DEFAULT_VEHTYPE" speedFactor="1.01" vaporized=""/>
    <tripinfo id="8" depart="8.00" departLane="-1040758930#0_0" departPos="3.43" departSpeed="0.00" departDelay="0.00" arrival="15.00" arrivalLane="-1040758930#0_0" arrivalPos="3.43" arrivalSpeed="4.02" duration="7.00" routeLength="16.20" waitingTime="0.00" waitingCount="0" stopTime="0.00" timeLoss="2.35" rerouteNo="0" devices="tripinfo_8" vType="DEFAULT_VEHTYPE" speedFactor="0.94" vaporized=""/>
    <tripinfo id="6" depart="6.00" departLane="683876839#7_0" departPos="0.10" departSpeed="0.00" departDelay="0.00" arrival="16.00" arrivalLane="-826873318#1_0" arrivalPos="2.47" arrivalSpeed="5.48" duration="10.00" routeLength="63.73" waitingTime="0.00" waitingCount="0" stopTime="0.00" timeLoss="5.08" rerouteNo="0" devices="tripinfo_6" vType="DEFAULT_VEHTYPE" speedFactor="1.05" vaporized=""/>
    <tripinfo id="9" depart="9.00" departLane="-1266002304_0" departPos="1.58" departSpeed="0.00" departDelay="0.00" arrival="17.00" arrivalLane="-1266002302#2_0" arrivalPos="3.00" arrivalSpeed="4.21" duration="8.00" routeLength="20.00" waitingTime="0.00" waitingCount="0" stopTime="0.00" timeLoss="2.66" rerouteNo="0" devices="tripinfo_9" vType="DEFAULT_VEHTYPE" speedFactor="0.86" vaporized=""/>
    <tripinfo id="4" depart="4.00" departLane="-1237202847_0" departPos="5.10" departSpeed="0.00" departDelay="0.00" arrival="18.00" arrivalLane="-889984928#1_0" arrivalPos="24.96" arrivalSpeed="10.02" duration="14.00" routeLength="71.09" waitingTime="0.00" waitingCount="0" stopTime="0.00" timeLoss="5.79" rerouteNo="0" devices="tripinfo_4" vType="DEFAULT_VEHTYPE" speedFactor="1.03" vaporized=""/>
    <tripinfo id="7" depart="7.00" departLane="-50536193#3_0" departPos="5.10" departSpeed="0.00" departDelay="0.00" arrival="19.00" arrivalLane="-597555258#3_0" arrivalPos="2.10" arrivalSpeed="4.91" duration="12.00" routeLength="76.58" waitingTime="0.00" waitingCount="0" stopTime="0.00" timeLoss="3.58" rerouteNo="0" devices="tripinfo_7" vType="DEFAULT_VEHTYPE" speedFactor="0.89" vaporized=""/>
    <tripinfo id="5" depart="5.00" departLane="-597555258#1_0" departPos="5.10" departSpeed="0.00" departDelay="0.00" arrival="42.00" arrivalLane="897504198_0" arrivalPos="90.59" arrivalSpeed="4.45" duration="37.00" routeLength="140.07" waitingTime="0.00" waitingCount="0" stopTime="0.00" timeLoss="6.20" rerouteNo="0" devices="tripinfo_5" vType="DEFAULT_VEHTYPE" speedFactor="0.83" vaporized=""/>
    <tripinfo id="3" depart="3.00" departLane="597567672#4_0" departPos="5.10" departSpeed="0.00" departDelay="0.00" arrival="44.00" arrivalLane="-597567672#3_0" arrivalPos="6.06" arrivalSpeed="5.75" duration="41.00" routeLength="203.93" waitingTime="0.00" waitingCount="0" stopTime="0.00" timeLoss="5.74" rerouteNo="0" devices="tripinfo_3" vType="DEFAULT_VEHTYPE" speedFactor="1.08" vaporized=""/>
    <tripinfo id="0" depart="0.00" departLane="-1328731396_0" departPos="5.10" departSpeed="0.00" departDelay="0.00" arrival="50.00" arrivalLane="-889984907_0" arrivalPos="59.00" arrivalSpeed="5.27" duration="50.00" routeLength="251.67" waitingTime="0.00" waitingCount="0" stopTime="0.00" timeLoss="6.59" rerouteNo="0" devices="tripinfo_0" vType="DEFAULT_VEHTYPE" speedFactor="1.06" vaporized=""/>
</tripinfos>
