<?xml version="1.0" encoding="UTF-8"?>

<!-- generated on 2025-04-22 15:55:24 by Eclipse SUMO GUI Version 1.12.0
<configuration xmlns:xsi="http://www.w3.org/2001/XMLSchema-instance" xsi:noNamespaceSchemaLocation="http://sumo.dlr.de/xsd/sumoConfiguration.xsd">

    <input>
        <net-file value="./dataset/HUST/net.xml"/>
        <route-files value="./dataset/HUST/routes.xml"/>
    </input>

    <output>
        <netstate-dump value="./dataset/HUST/netstate.xml"/>
        <tripinfo-output value="./dataset/HUST/tripinfo.xml"/>
    </output>

    <time>
        <begin value="0"/>
        <end value="1000"/>
    </time>

    <traci_server>
        <remote-port value="33993"/>
    </traci_server>

</configuration>
-->

<tripinfos xmlns:xsi="http://www.w3.org/2001/XMLSchema-instance" xsi:noNamespaceSchemaLocation="http://sumo.dlr.de/xsd/tripinfo_file.xsd">
    <tripinfo id="2" depart="2.00" departLane="1211217606#1_0" departPos="0.20" departSpeed="0.00" departDelay="0.00" arrival="29.00" arrivalLane="711379743#2_0" arrivalPos="92.20" arrivalSpeed="16.42" duration="27.00" routeLength="256.17" waitingTime="0.00" waitingCount="0" stopTime="0.00" timeLoss="8.64" rerouteNo="0" devices="tripinfo_2" vType="DEFAULT_VEHTYPE" speedFactor="1.01" vaporized=""/>
    <tripinfo id="4" depart="4.00" departLane="37370971#2_0" departPos="5.10" departSpeed="0.00" departDelay="0.00" arrival="36.00" arrivalLane="178102535_0" arrivalPos="505.08" arrivalSpeed="29.85" duration="32.00" routeLength="710.84" waitingTime="0.00" waitingCount="0" stopTime="0.00" timeLoss="7.48" rerouteNo="0" devices="tripinfo_4" vType="DEFAULT_VEHTYPE" speedFactor="1.08" vaporized=""/>
    <tripinfo id="1" depart="1.00" departLane="-905363915#9_0" departPos="1.33" departSpeed="0.00" departDelay="0.00" arrival="39.00" arrivalLane="1196399799#1_0" arrivalPos="12.27" arrivalSpeed="4.77" duration="38.00" routeLength="157.96" waitingTime="0.00" waitingCount="0" stopTime="0.00" timeLoss="6.29" rerouteNo="0" devices="tripinfo_1" vType="DEFAULT_VEHTYPE" speedFactor="0.94" vaporized=""/>
    <tripinfo id="7" depart="7.00" departLane="38136736#6_0" departPos="5.10" departSpeed="0.00" departDelay="0.00" arrival="40.00" arrivalLane="1266002301#0_0" arrivalPos="2.55" arrivalSpeed="3.92" duration="33.00" routeLength="160.59" waitingTime="0.00" waitingCount="0" stopTime="0.00" timeLoss="12.17" rerouteNo="0" devices="tripinfo_7" vType="DEFAULT_VEHTYPE" speedFactor="0.83" vaporized=""/>
    <tripinfo id="24" depart="24.00" departLane="596754774#1_0" departPos="0.20" departSpeed="0.00" departDelay="0.00" arrival="44.00" arrivalLane="838419183#0_0" arrivalPos="5.52" arrivalSpeed="6.01" duration="20.00" routeLength="141.71" waitingTime="0.00" waitingCount="0" stopTime="0.00" timeLoss="10.87" rerouteNo="0" devices="tripinfo_24" vType="DEFAULT_VEHTYPE" speedFactor="1.02" vaporized=""/>
    <tripinfo id="17" depart="17.00" departLane="947077276#2_0" departPos="0.20" departSpeed="0.00" departDelay="0.00" arrival="49.00" arrivalLane="37370971#0_0" arrivalPos="109.36" arrivalSpeed="27.27" duration="32.00" routeLength="493.10" waitingTime="0.00" waitingCount="0" stopTime="0.00" timeLoss="6.24" rerouteNo="0" devices="tripinfo_17" vType="DEFAULT_VEHTYPE" speedFactor="0.99" vaporized=""/>
    <tripinfo id="8" depart="8.00" departLane="37862085_0" departPos="5.10" departSpeed="0.00" departDelay="0.00" arrival="52.00" arrivalLane="709360971_0" arrivalPos="315.68" arrivalSpeed="16.94" duration="44.00" routeLength="715.34" waitingTime="0.00" waitingCount="0" stopTime="0.00" timeLoss="8.50" rerouteNo="0" devices="tripinfo_8" vType="DEFAULT_VEHTYPE" speedFactor="1.05" vaporized=""/>
    <tripinfo id="20" depart="20.00" departLane="601468008#0_0" departPos="0.20" departSpeed="0.00" departDelay="0.00" arrival="55.00" arrivalLane="1331850902_0" arrivalPos="8.89" arrivalSpeed="4.32" duration="35.00" routeLength="140.92" waitingTime="0.00" waitingCount="0" stopTime="0.00" timeLoss="9.47" rerouteNo="0" devices="tripinfo_20" vType="DEFAULT_VEHTYPE" speedFactor="0.94" vaporized=""/>
    <tripinfo id="37" depart="37.00" departLane="-1266002302#2_0" departPos="3.00" departSpeed="0.00" departDelay="0.00" arrival="56.00" arrivalLane="1266002300_0" arrivalPos="4.65" arrivalSpeed="5.94" duration="19.00" routeLength="81.93" waitingTime="0.00" waitingCount="0" stopTime="0.00" timeLoss="4.62" rerouteNo="0" devices="tripinfo_37" vType="DEFAULT_VEHTYPE" speedFactor="1.18" vaporized=""/>
    <tripinfo id="41" depart="41.00" departLane="702924876#1_0" departPos="5.10" departSpeed="0.00" departDelay="0.00" arrival="56.00" arrivalLane="-889095246#0_0" arrivalPos="26.12" arrivalSpeed="13.22" duration="15.00" routeLength="102.69" waitingTime="0.00" waitingCount="0" stopTime="0.00" timeLoss="5.35" rerouteNo="0" devices="tripinfo_41" vType="DEFAULT_VEHTYPE" speedFactor="0.99" vaporized=""/>
    <tripinfo id="27" depart="27.00" departLane="496615727#1_0" departPos="5.10" departSpeed="0.00" departDelay="0.00" arrival="57.00" arrivalLane="25211489#1_0" arrivalPos="26.19" arrivalSpeed="19.85" duration="30.00" routeLength="251.73" waitingTime="0.00" waitingCount="0" stopTime="0.00" timeLoss="7.04" rerouteNo="0" devices="tripinfo_27" vType="DEFAULT_VEHTYPE" speedFactor="0.89" vaporized=""/>
    <tripinfo id="14" depart="14.00" departLane="-1289793258_0" departPos="5.10" departSpeed="0.00" departDelay="0.00" arrival="61.00" arrivalLane="601468005#0_0" arrivalPos="131.63" arrivalSpeed="13.36" duration="47.00" routeLength="440.84" waitingTime="0.00" waitingCount="0" stopTime="0.00" timeLoss="12.98" rerouteNo="0" devices="tripinfo_14" vType="DEFAULT_VEHTYPE" speedFactor="1.03" vaporized=""/>
    <tripinfo id="33" depart="33.00" departLane="-1120506160#0_0" departPos="5.10" departSpeed="0.00" departDelay="0.00" arrival="69.00" arrivalLane="-1201840040#0_0" arrivalPos="8.57" arrivalSpeed="11.93" duration="36.00" routeLength="220.88" waitingTime="0.00" waitingCount="0" stopTime="0.00" timeLoss="14.14" rerouteNo="0" devices="tripinfo_33" vType="DEFAULT_VEHTYPE" speedFactor="0.92" vaporized=""/>
    <tripinfo id="13" depart="13.00" departLane="1237202843_0" departPos="5.10" departSpeed="0.00" departDelay="0.00" arrival="71.00" arrivalLane="1213647550#0_0" arrivalPos="43.23" arrivalSpeed="5.66" duration="58.00" routeLength="315.08" waitingTime="0.00" waitingCount="0" stopTime="0.00" timeLoss="11.58" rerouteNo="0" devices="tripinfo_13" vType="DEFAULT_VEHTYPE" speedFactor="1.09" vaporized=""/>
    <tripinfo id="15" depart="15.00" departLane="-1196399800#0_0" departPos="5.10" departSpeed="0.00" departDelay="0.00" arrival="71.00" arrivalLane="905363915#11_0" arrivalPos="0.20" arrivalSpeed="4.55" duration="56.00" routeLength="263.72" waitingTime="0.00" waitingCount="0" stopTime="0.00" timeLoss="8.95" rerouteNo="0" devices="tripinfo_15" vType="DEFAULT_VEHTYPE" speedFactor="1.05" vaporized=""/>
    <tripinfo id="32" depart="32.00" departLane="-601861003#0_0" departPos="5.10" departSpeed="0.00" departDelay="0.00" arrival="73.00" arrivalLane="711379742#1_0" arrivalPos="21.09" arrivalSpeed="20.57" duration="41.00" routeLength="361.39" waitingTime="0.00" waitingCount="0" stopTime="0.00" timeLoss="8.05" rerouteNo="0" devices="tripinfo_32" vType="DEFAULT_VEHTYPE" speedFactor="0.87" vaporized=""/>
    <tripinfo id="35" depart="35.00" departLane="889095249#3_0" departPos="5.10" departSpeed="0.00" departDelay="0.00" arrival="75.00" arrivalLane="-889095247#1_0" arrivalPos="13.83" arrivalSpeed="5.12" duration="40.00" routeLength="176.45" waitingTime="0.00" waitingCount="0" stopTime="0.00" timeLoss="8.45" rerouteNo="0" devices="tripinfo_35" vType="DEFAULT_VEHTYPE" speedFactor="1.13" vaporized=""/>
    <tripinfo id="45" depart="45.00" departLane="-38136736#8_0" departPos="4.74" departSpeed="0.00" departDelay="0.00" arrival="80.00" arrivalLane="683871824#1_0" arrivalPos="23.31" arrivalSpeed="6.51" duration="35.00" routeLength="220.28" waitingTime="0.00" waitingCount="0" stopTime="0.00" timeLoss="10.74" rerouteNo="0" devices="tripinfo_45" vType="DEFAULT_VEHTYPE" speedFactor="1.18" vaporized=""/>
    <tripinfo id="9" depart="9.00" departLane="889095233#0_0" departPos="5.10" departSpeed="0.00" departDelay="0.00" arrival="81.00" arrivalLane="-889095249#2_0" arrivalPos="0.20" arrivalSpeed="4.76" duration="72.00" routeLength="287.43" waitingTime="0.00" waitingCount="0" stopTime="0.00" timeLoss="11.91" rerouteNo="0" devices="tripinfo_9" vType="DEFAULT_VEHTYPE" speedFactor="0.89" vaporized=""/>
    <tripinfo id="54" depart="54.00" departLane="-28924715#2_0" departPos="5.10" departSpeed="0.00" departDelay="0.00" arrival="82.00" arrivalLane="838419184#0_0" arrivalPos="0.20" arrivalSpeed="6.20" duration="28.00" routeLength="355.26" waitingTime="0.00" waitingCount="0" stopTime="0.00" timeLoss="10.93" rerouteNo="0" devices="tripinfo_54" vType="DEFAULT_VEHTYPE" speedFactor="1.04" vaporized=""/>
    <tripinfo id="47" depart="47.00" departLane="-601455461#1_0" departPos="4.22" departSpeed="0.00" departDelay="0.00" arrival="83.00" arrivalLane="601455461#1_0" arrivalPos="4.22" arrivalSpeed="3.83" duration="36.00" routeLength="130.21" waitingTime="0.00" waitingCount="0" stopTime="0.00" timeLoss="7.22" rerouteNo="0" devices="tripinfo_47" vType="DEFAULT_VEHTYPE" speedFactor="0.90" vaporized=""/>
    <tripinfo id="72" depart="72.00" departLane="856290146#0_0" departPos="0.20" departSpeed="0.00" departDelay="0.00" arrival="90.00" arrivalLane="-1267842584#0_0" arrivalPos="0.20" arrivalSpeed="2.94" duration="18.00" routeLength="77.09" waitingTime="0.00" waitingCount="0" stopTime="0.00" timeLoss="6.55" rerouteNo="0" devices="tripinfo_72" vType="DEFAULT_VEHTYPE" speedFactor="0.97" vaporized=""/>
    <tripinfo id="62" depart="62.00" departLane="399835468#1_0" departPos="4.58" departSpeed="0.00" departDelay="0.00" arrival="91.00" arrivalLane="399835468#4_0" arrivalPos="301.70" arrivalSpeed="13.63" duration="29.00" routeLength="359.81" waitingTime="0.00" waitingCount="0" stopTime="0.00" timeLoss="3.62" rerouteNo="0" devices="tripinfo_62" vType="DEFAULT_VEHTYPE" speedFactor="0.85" vaporized=""/>
    <tripinfo id="0" depart="0.00" departLane="597567671#5_0" departPos="5.10" departSpeed="0.00" departDelay="0.00" arrival="93.00" arrivalLane="597567672#4_0" arrivalPos="94.45" arrivalSpeed="5.70" duration="93.00" routeLength="469.69" waitingTime="0.00" waitingCount="0" stopTime="0.00" timeLoss="12.28" rerouteNo="1" devices="tripinfo_0" vType="DEFAULT_VEHTYPE" speedFactor="1.06" vaporized=""/>
    <tripinfo id="55" depart="55.00" departLane="-1307914823_0" departPos="5.10" departSpeed="0.00" departDelay="0.00" arrival="93.00" arrivalLane="37771321#3_0" arrivalPos="3.62" arrivalSpeed="13.41" duration="38.00" routeLength="213.10" waitingTime="0.00" waitingCount="0" stopTime="0.00" timeLoss="12.03" rerouteNo="0" devices="tripinfo_55" vType="DEFAULT_VEHTYPE" speedFactor="1.09" vaporized=""/>
    <tripinfo id="53" depart="53.00" departLane="-1080884301#0_0" departPos="3.13" departSpeed="0.00" departDelay="0.00" arrival="94.00" arrivalLane="136258915#0_0" arrivalPos="12.71" arrivalSpeed="15.34" duration="41.00" routeLength="493.02" waitingTime="0.00" waitingCount="0" stopTime="0.00" timeLoss="11.58" rerouteNo="0" devices="tripinfo_53" vType="DEFAULT_VEHTYPE" speedFactor="1.04" vaporized=""/>
    <tripinfo id="29" depart="29.00" departLane="889984929#2_0" departPos="5.10" departSpeed="0.00" departDelay="0.00" arrival="95.00" arrivalLane="-889984930_0" arrivalPos="45.21" arrivalSpeed="3.43" duration="66.00" routeLength="258.84" waitingTime="0.00" waitingCount="0" stopTime="0.00" timeLoss="13.31" rerouteNo="0" devices="tripinfo_29" vType="DEFAULT_VEHTYPE" speedFactor="0.83" vaporized=""/>
    <tripinfo id="26" depart="26.00" departLane="1313202350_0" departPos="5.10" departSpeed="0.00" departDelay="0.00" arrival="97.00" arrivalLane="1313202353_0" arrivalPos="19.43" arrivalSpeed="4.37" duration="71.00" routeLength="446.54" waitingTime="0.00" waitingCount="0" stopTime="0.00" timeLoss="12.40" rerouteNo="0" devices="tripinfo_26" vType="DEFAULT_VEHTYPE" speedFactor="0.98" vaporized=""/>
    <tripinfo id="46" depart="46.00" departLane="597136850#6_0" departPos="5.10" departSpeed="0.00" departDelay="0.00" arrival="97.00" arrivalLane="597136848#5_0" arrivalPos="4.46" arrivalSpeed="4.83" duration="51.00" routeLength="246.96" waitingTime="0.00" waitingCount="0" stopTime="0.00" timeLoss="7.76" rerouteNo="0" devices="tripinfo_46" vType="DEFAULT_VEHTYPE" speedFactor="1.10" vaporized=""/>
    <tripinfo id="6" depart="6.00" departLane="1059471076#0_0" departPos="5.10" departSpeed="0.00" departDelay="0.00" arrival="105.00" arrivalLane="889095253_0" arrivalPos="15.46" arrivalSpeed="5.68" duration="99.00" routeLength="480.23" waitingTime="0.00" waitingCount="0" stopTime="0.00" timeLoss="13.60" rerouteNo="0" devices="tripinfo_6" vType="DEFAULT_VEHTYPE" speedFactor="1.03" vaporized=""/>
    <tripinfo id="71" depart="71.00" departLane="1121160402_0" departPos="5.10" departSpeed="0.00" departDelay="0.00" arrival="105.00" arrivalLane="-11007201#18_0" arrivalPos="0.20" arrivalSpeed="6.48" duration="34.00" routeLength="190.91" waitingTime="0.00" waitingCount="0" stopTime="0.00" timeLoss="8.70" rerouteNo="0" devices="tripinfo_71" vType="DEFAULT_VEHTYPE" speedFactor="1.02" vaporized=""/>
    <tripinfo id="75" depart="75.00" departLane="1211217606#0_0" departPos="1.14" departSpeed="0.00" departDelay="0.00" arrival="106.00" arrivalLane="-1211217604#1_0" arrivalPos="0.40" arrivalSpeed="8.10" duration="31.00" routeLength="66.16" waitingTime="14.00" waitingCount="1" stopTime="0.00" timeLoss="21.85" rerouteNo="0" devices="tripinfo_75" vType="DEFAULT_VEHTYPE" speedFactor="1.12" vaporized=""/>
    <tripinfo id="11" depart="11.00" departLane="-889984891_0" departPos="5.10" departSpeed="0.00" departDelay="0.00" arrival="107.00" arrivalLane="-37771357#1_0" arrivalPos="18.43" arrivalSpeed="4.49" duration="96.00" routeLength="381.25" waitingTime="0.00" waitingCount="0" stopTime="0.00" timeLoss="15.14" rerouteNo="0" devices="tripinfo_11" vType="DEFAULT_VEHTYPE" speedFactor="0.86" vaporized=""/>
    <tripinfo id="34" depart="34.00" departLane="-708533143#7_0" departPos="0.20" departSpeed="0.00" departDelay="0.00" arrival="107.00" arrivalLane="-1328731394#0_0" arrivalPos="17.11" arrivalSpeed="4.35" duration="73.00" routeLength="370.64" waitingTime="0.00" waitingCount="0" stopTime="0.00" timeLoss="14.38" rerouteNo="0" devices="tripinfo_34" vType="DEFAULT_VEHTYPE" speedFactor="0.95" vaporized=""/>
    <tripinfo id="98" depart="98.00" departLane="702914102#0_0" departPos="0.67" departSpeed="0.00" departDelay="0.00" arrival="107.00" arrivalLane="708596419#1_1" arrivalPos="4.97" arrivalSpeed="17.32" duration="9.00" routeLength="80.14" waitingTime="0.00" waitingCount="0" stopTime="0.00" timeLoss="5.50" rerouteNo="0" devices="tripinfo_98" vType="DEFAULT_VEHTYPE" speedFactor="1.09" vaporized=""/>
    <tripinfo id="19" depart="19.00" departLane="-1206943189_0" departPos="1.72" departSpeed="0.00" departDelay="0.00" arrival="108.00" arrivalLane="-1206943188_0" arrivalPos="3.38" arrivalSpeed="4.71" duration="89.00" routeLength="368.05" waitingTime="0.00" waitingCount="0" stopTime="0.00" timeLoss="12.73" rerouteNo="0" devices="tripinfo_19" vType="DEFAULT_VEHTYPE" speedFactor="0.88" vaporized=""/>
    <tripinfo id="73" depart="73.00" departLane="-597555258#3_0" departPos="2.10" departSpeed="0.00" departDelay="0.00" arrival="108.00" arrivalLane="1040758930#0_0" arrivalPos="3.43" arrivalSpeed="4.94" duration="35.00" routeLength="275.11" waitingTime="0.00" waitingCount="0" stopTime="0.00" timeLoss="12.60" rerouteNo="0" devices="tripinfo_73" vType="DEFAULT_VEHTYPE" speedFactor="1.08" vaporized=""/>
    <tripinfo id="66" depart="66.00" departLane="-838419184#3_0" departPos="5.10" departSpeed="0.00" departDelay="0.00" arrival="109.00" arrivalLane="1107666382#0_0" arrivalPos="3.69" arrivalSpeed="10.38" duration="43.00" routeLength="418.53" waitingTime="7.00" waitingCount="1" stopTime="0.00" timeLoss="26.80" rerouteNo="0" devices="tripinfo_66" vType="DEFAULT_VEHTYPE" speedFactor="1.10" vaporized=""/>
    <tripinfo id="50" depart="50.00" departLane="596802486#2_0" departPos="0.20" departSpeed="0.00" departDelay="0.00" arrival="110.00" arrivalLane="1217463139_0" arrivalPos="21.02" arrivalSpeed="5.11" duration="60.00" routeLength="255.81" waitingTime="0.00" waitingCount="0" stopTime="0.00" timeLoss="10.06" rerouteNo="0" devices="tripinfo_50" vType="DEFAULT_VEHTYPE" speedFactor="0.96" vaporized=""/>
    <tripinfo id="68" depart="68.00" departLane="-11007201#1_0" departPos="5.10" departSpeed="0.00" departDelay="0.00" arrival="110.00" arrivalLane="-1339361803#1_0" arrivalPos="30.94" arrivalSpeed="4.78" duration="42.00" routeLength="154.43" waitingTime="6.00" waitingCount="1" stopTime="0.00" timeLoss="20.44" rerouteNo="0" devices="tripinfo_68" vType="DEFAULT_VEHTYPE" speedFactor="1.00" vaporized=""/>
    <tripinfo id="10" depart="10.00" departLane="601468009#0_0" departPos="5.10" departSpeed="0.00" departDelay="0.00" arrival="111.00" arrivalLane="875229044#0_0" arrivalPos="37.33" arrivalSpeed="9.23" duration="101.00" routeLength="556.10" waitingTime="0.00" waitingCount="0" stopTime="0.00" timeLoss="15.92" rerouteNo="0" devices="tripinfo_10" vType="DEFAULT_VEHTYPE" speedFactor="0.94" vaporized=""/>
    <tripinfo id="36" depart="36.00" departLane="-596788386_0" departPos="5.10" departSpeed="0.00" departDelay="0.00" arrival="117.00" arrivalLane="-601861003#0_0" arrivalPos="37.32" arrivalSpeed="4.60" duration="81.00" routeLength="445.06" waitingTime="0.00" waitingCount="0" stopTime="0.00" timeLoss="13.61" rerouteNo="0" devices="tripinfo_36" vType="DEFAULT_VEHTYPE" speedFactor="0.93" vaporized=""/>
    <tripinfo id="40" depart="40.00" departLane="683871816#3_0" departPos="5.10" departSpeed="0.00" departDelay="0.00" arrival="118.00" arrivalLane="37771321#0_0" arrivalPos="0.19" arrivalSpeed="8.73" duration="78.00" routeLength="717.18" waitingTime="0.00" waitingCount="0" stopTime="0.00" timeLoss="19.53" rerouteNo="0" devices="tripinfo_40" vType="DEFAULT_VEHTYPE" speedFactor="1.17" vaporized=""/>
    <tripinfo id="58" depart="58.00" departLane="-1106227991#1_0" departPos="0.20" departSpeed="0.00" departDelay="0.00" arrival="118.00" arrivalLane="596813214#1_0" arrivalPos="51.36" arrivalSpeed="4.47" duration="60.00" routeLength="242.49" waitingTime="0.00" waitingCount="0" stopTime="0.00" timeLoss="11.73" rerouteNo="0" devices="tripinfo_58" vType="DEFAULT_VEHTYPE" speedFactor="0.88" vaporized=""/>
    <tripinfo id="21" depart="21.00" departLane="1150864185#2_0" departPos="5.10" departSpeed="0.00" departDelay="0.00" arrival="120.00" arrivalLane="708642543#1_0" arrivalPos="48.73" arrivalSpeed="12.40" duration="99.00" routeLength="627.88" waitingTime="0.00" waitingCount="0" stopTime="0.00" timeLoss="17.44" rerouteNo="0" devices="tripinfo_21" vType="DEFAULT_VEHTYPE" speedFactor="0.94" vaporized=""/>
    <tripinfo id="42" depart="42.00" departLane="-597567673#3_0" departPos="5.10" departSpeed="0.00" departDelay="0.00" arrival="120.00" arrivalLane="597567673#5_0" arrivalPos="60.70" arrivalSpeed="4.38" duration="78.00" routeLength="564.08" waitingTime="0.00" waitingCount="0" stopTime="0.00" timeLoss="16.64" rerouteNo="0" devices="tripinfo_42" vType="DEFAULT_VEHTYPE" speedFactor="1.02" vaporized=""/>
    <tripinfo id="49" depart="49.00" departLane="472431976#14_0" departPos="5.10" departSpeed="0.00" departDelay="0.00" arrival="121.00" arrivalLane="-1120482821_0" arrivalPos="10.19" arrivalSpeed="4.50" duration="72.00" routeLength="445.42" waitingTime="0.00" waitingCount="0" stopTime="0.00" timeLoss="18.01" rerouteNo="0" devices="tripinfo_49" vType="DEFAULT_VEHTYPE" speedFactor="1.03" vaporized=""/>
    <tripinfo id="63" depart="63.00" departLane="-1196399802_0" departPos="1.66" departSpeed="0.00" departDelay="0.00" arrival="122.00" arrivalLane="183423974#0_0" arrivalPos="34.99" arrivalSpeed="6.30" duration="59.00" routeLength="317.50" waitingTime="0.00" waitingCount="0" stopTime="0.00" timeLoss="8.25" rerouteNo="0" devices="tripinfo_63" vType="DEFAULT_VEHTYPE" speedFactor="1.17" vaporized=""/>
    <tripinfo id="52" depart="52.00" departLane="-1023619581#5_0" departPos="5.10" departSpeed="0.00" departDelay="0.00" arrival="124.00" arrivalLane="-601861003#2_0" arrivalPos="48.37" arrivalSpeed="5.87" duration="72.00" routeLength="387.18" waitingTime="0.00" waitingCount="0" stopTime="0.00" timeLoss="12.28" rerouteNo="0" devices="tripinfo_52" vType="DEFAULT_VEHTYPE" speedFactor="1.09" vaporized=""/>
    <tripinfo id="25" depart="25.00" departLane="-1106598504_0" departPos="5.10" departSpeed="0.00" departDelay="0.00" arrival="129.00" arrivalLane="1106598505_0" arrivalPos="3.20" arrivalSpeed="4.63" duration="104.00" routeLength="508.00" waitingTime="0.00" waitingCount="0" stopTime="0.00" timeLoss="12.29" rerouteNo="0" devices="tripinfo_25" vType="DEFAULT_VEHTYPE" speedFactor="1.01" vaporized=""/>
    <tripinfo id="44" depart="44.00" departLane="-702934337#0_0" departPos="0.20" departSpeed="0.00" departDelay="0.00" arrival="129.00" arrivalLane="-889095262#1_0" arrivalPos="17.57" arrivalSpeed="5.41" duration="85.00" routeLength="398.96" waitingTime="0.00" waitingCount="0" stopTime="0.00" timeLoss="15.18" rerouteNo="0" devices="tripinfo_44" vType="DEFAULT_VEHTYPE" speedFactor="0.97" vaporized=""/>
    <tripinfo id="92" depart="92.00" departLane="36730546#1_0" departPos="5.10" departSpeed="0.00" departDelay="0.00" arrival="129.00" arrivalLane="889984929#4_0" arrivalPos="5.42" arrivalSpeed="6.23" duration="37.00" routeLength="178.61" waitingTime="0.00" waitingCount="0" stopTime="0.00" timeLoss="9.78" rerouteNo="0" devices="tripinfo_92" vType="DEFAULT_VEHTYPE" speedFactor="1.06" vaporized=""/>
    <tripinfo id="97" depart="97.00" departLane="-37731470#3_0" departPos="5.10" departSpeed="0.00" departDelay="0.00" arrival="131.00" arrivalLane="-708550657#0_0" arrivalPos="30.76" arrivalSpeed="4.89" duration="34.00" routeLength="284.16" waitingTime="0.00" waitingCount="0" stopTime="0.00" timeLoss="9.43" rerouteNo="0" devices="tripinfo_97" vType="DEFAULT_VEHTYPE" speedFactor="1.01" vaporized=""/>
    <tripinfo id="16" depart="16.00" departLane="709289368#0_0" departPos="0.20" departSpeed="0.00" departDelay="0.00" arrival="132.00" arrivalLane="709289368#1_0" arrivalPos="58.17" arrivalSpeed="6.02" duration="116.00" routeLength="601.12" waitingTime="0.00" waitingCount="0" stopTime="0.00" timeLoss="16.42" rerouteNo="0" devices="tripinfo_16" vType="DEFAULT_VEHTYPE" speedFactor="1.12" vaporized=""/>
    <tripinfo id="59" depart="59.00" departLane="1197061361#1_0" departPos="5.10" departSpeed="0.00" departDelay="0.00" arrival="133.00" arrivalLane="1197061361#0_0" arrivalPos="23.66" arrivalSpeed="4.12" duration="74.00" routeLength="279.14" waitingTime="0.00" waitingCount="0" stopTime="0.00" timeLoss="11.77" rerouteNo="0" devices="tripinfo_59" vType="DEFAULT_VEHTYPE" speedFactor="0.85" vaporized=""/>
    <tripinfo id="90" depart="90.00" departLane="-711492959#1_0" departPos="5.10" departSpeed="0.00" departDelay="0.00" arrival="133.00" arrivalLane="-1202722726#0_0" arrivalPos="28.14" arrivalSpeed="12.97" duration="43.00" routeLength="221.08" waitingTime="0.00" waitingCount="0" stopTime="0.00" timeLoss="8.31" rerouteNo="0" devices="tripinfo_90" vType="DEFAULT_VEHTYPE" speedFactor="0.97" vaporized=""/>
    <tripinfo id="18" depart="18.00" departLane="-601468010_0" departPos="5.10" departSpeed="0.00" departDelay="0.00" arrival="134.00" arrivalLane="1120482821_0" arrivalPos="10.19" arrivalSpeed="4.66" duration="116.00" routeLength="688.95" waitingTime="0.00" waitingCount="0" stopTime="0.00" timeLoss="20.91" rerouteNo="0" devices="tripinfo_18" vType="DEFAULT_VEHTYPE" speedFactor="0.93" vaporized=""/>
    <tripinfo id="78" depart="78.00" departLane="1059471076#2_0" departPos="0.38" departSpeed="0.00" departDelay="0.00" arrival="137.00" arrivalLane="-1290406719#3_0" arrivalPos="0.20" arrivalSpeed="7.36" duration="59.00" routeLength="302.93" waitingTime="0.00" waitingCount="0" stopTime="0.00" timeLoss="10.70" rerouteNo="0" devices="tripinfo_78" vType="DEFAULT_VEHTYPE" speedFactor="0.99" vaporized=""/>
    <tripinfo id="81" depart="81.00" departLane="-1196399797#2_0" departPos="0.20" departSpeed="0.00" departDelay="0.00" arrival="139.00" arrivalLane="905363915#10_0" arrivalPos="2.94" arrivalSpeed="4.23" duration="58.00" routeLength="234.41" waitingTime="0.00" waitingCount="0" stopTime="0.00" timeLoss="9.27" rerouteNo="0" devices="tripinfo_81" vType="DEFAULT_VEHTYPE" speedFactor="0.88" vaporized=""/>
    <tripinfo id="69" depart="69.00" departLane="-888336567#1_0" departPos="0.20" departSpeed="0.00" departDelay="0.00" arrival="141.00" arrivalLane="601468004_0" arrivalPos="70.26" arrivalSpeed="12.08" duration="72.00" routeLength="463.54" waitingTime="0.00" waitingCount="0" stopTime="0.00" timeLoss="19.96" rerouteNo="0" devices="tripinfo_69" vType="DEFAULT_VEHTYPE" speedFactor="0.90" vaporized=""/>
    <tripinfo id="83" depart="83.00" departLane="596802428#1_0" departPos="5.10" departSpeed="0.00" departDelay="0.00" arrival="145.00" arrivalLane="1253898528_0" arrivalPos="8.82" arrivalSpeed="4.65" duration="62.00" routeLength="253.27" waitingTime="0.00" waitingCount="0" stopTime="0.00" timeLoss="10.60" rerouteNo="0" devices="tripinfo_83" vType="DEFAULT_VEHTYPE" speedFactor="0.91" vaporized=""/>
    <tripinfo id="88" depart="88.00" departLane="-477390127#5_0" departPos="0.20" departSpeed="0.00" departDelay="0.00" arrival="148.00" arrivalLane="-1237202844_0" arrivalPos="53.73" arrivalSpeed="4.98" duration="60.00" routeLength="295.50" waitingTime="0.00" waitingCount="0" stopTime="0.00" timeLoss="11.13" rerouteNo="0" devices="tripinfo_88" vType="DEFAULT_VEHTYPE" speedFactor="1.02" vaporized=""/>
    <tripinfo id="64" depart="64.00" departLane="-1194676132#0_0" departPos="5.10" departSpeed="0.00" departDelay="0.00" arrival="152.00" arrivalLane="36730553_0" arrivalPos="66.67" arrivalSpeed="5.56" duration="88.00" routeLength="420.06" waitingTime="0.00" waitingCount="0" stopTime="0.00" timeLoss="15.88" rerouteNo="0" devices="tripinfo_64" vType="DEFAULT_VEHTYPE" speedFactor="1.02" vaporized=""/>
    <tripinfo id="76" depart="76.00" departLane="683871816#3_0" departPos="5.10" departSpeed="0.00" departDelay="0.00" arrival="154.00" arrivalLane="-1226367851#3_0" arrivalPos="0.20" arrivalSpeed="4.67" duration="78.00" routeLength="406.35" waitingTime="0.00" waitingCount="0" stopTime="0.00" timeLoss="19.46" rerouteNo="0" devices="tripinfo_76" vType="DEFAULT_VEHTYPE" speedFactor="1.02" vaporized=""/>
    <tripinfo id="67" depart="67.00" departLane="-1312196163#0_0" departPos="5.10" departSpeed="0.00" departDelay="0.00" arrival="158.00" arrivalLane="889984927#1_0" arrivalPos="79.34" arrivalSpeed="4.96" duration="91.00" routeLength="521.41" waitingTime="0.00" waitingCount="0" stopTime="0.00" timeLoss="20.29" rerouteNo="0" devices="tripinfo_67" vType="DEFAULT_VEHTYPE" speedFactor="1.00" vaporized=""/>
    <tripinfo id="79" depart="79.00" departLane="-1300438862#1_0" departPos="0.20" departSpeed="0.00" departDelay="0.00" arrival="165.00" arrivalLane="472432750#0_0" arrivalPos="0.20" arrivalSpeed="6.22" duration="86.00" routeLength="371.54" waitingTime="0.00" waitingCount="0" stopTime="0.00" timeLoss="15.42" rerouteNo="0" devices="tripinfo_79" vType="DEFAULT_VEHTYPE" speedFactor="0.94" vaporized=""/>
    <tripinfo id="84" depart="84.00" departLane="-1218545617_0" departPos="5.10" departSpeed="0.00" departDelay="0.00" arrival="170.00" arrivalLane="-597136850#0_0" arrivalPos="45.33" arrivalSpeed="4.94" duration="86.00" routeLength="416.30" waitingTime="0.00" waitingCount="0" stopTime="0.00" timeLoss="11.74" rerouteNo="0" devices="tripinfo_84" vType="DEFAULT_VEHTYPE" speedFactor="1.04" vaporized=""/>
    <tripinfo id="22" depart="22.00" departLane="-1040758930#0_0" departPos="3.43" departSpeed="0.00" departDelay="0.00" arrival="171.00" arrivalLane="-1040758930#1_0" arrivalPos="94.98" arrivalSpeed="5.42" duration="149.00" routeLength="808.84" waitingTime="0.00" waitingCount="0" stopTime="0.00" timeLoss="20.46" rerouteNo="0" devices="tripinfo_22" vType="DEFAULT_VEHTYPE" speedFactor="1.16" vaporized=""/>
    <tripinfo id="91" depart="91.00" departLane="-954128696#1_0" departPos="0.20" departSpeed="0.00" departDelay="0.00" arrival="173.00" arrivalLane="702908755#0_0" arrivalPos="0.20" arrivalSpeed="5.90" duration="82.00" routeLength="453.58" waitingTime="0.00" waitingCount="0" stopTime="0.00" timeLoss="19.64" rerouteNo="0" devices="tripinfo_91" vType="DEFAULT_VEHTYPE" speedFactor="0.94" vaporized=""/>
    <tripinfo id="86" depart="86.00" departLane="597567671#1_0" departPos="5.10" departSpeed="0.00" departDelay="0.00" arrival="175.00" arrivalLane="684284976#1_0" arrivalPos="12.58" arrivalSpeed="4.83" duration="89.00" routeLength="415.27" waitingTime="0.00" waitingCount="0" stopTime="0.00" timeLoss="13.54" rerouteNo="0" devices="tripinfo_86" vType="DEFAULT_VEHTYPE" speedFactor="1.02" vaporized=""/>
    <tripinfo id="95" depart="95.00" departLane="-36730546#4_0" departPos="5.10" departSpeed="0.00" departDelay="0.00" arrival="175.00" arrivalLane="-36730546#3_0" arrivalPos="29.42" arrivalSpeed="13.39" duration="80.00" routeLength="395.14" waitingTime="0.00" waitingCount="0" stopTime="0.00" timeLoss="13.64" rerouteNo="0" devices="tripinfo_95" vType="DEFAULT_VEHTYPE" speedFactor="1.03" vaporized=""/>
    <tripinfo id="56" depart="56.00" departLane="-1192868606#2_0" departPos="3.87" departSpeed="0.00" departDelay="0.00" arrival="176.00" arrivalLane="-1192868606#3_0" arrivalPos="105.69" arrivalSpeed="4.56" duration="120.00" routeLength="567.11" waitingTime="0.00" waitingCount="0" stopTime="0.00" timeLoss="16.65" rerouteNo="0" devices="tripinfo_56" vType="DEFAULT_VEHTYPE" speedFactor="1.00" vaporized=""/>