<?xml version="1.0" encoding="UTF-8"?>

<!-- generated on 2025-04-01 03:27:07 by Eclipse SUMO GUI Version 1.12.0
<configuration xmlns:xsi="http://www.w3.org/2001/XMLSchema-instance" xsi:noNamespaceSchemaLocation="http://sumo.dlr.de/xsd/sumoConfiguration.xsd">

    <input>
        <net-file value="./dataset/test%2001/net.xml"/>
        <route-files value="./dataset/test%2001/routes.xml"/>
    </input>

    <output>
        <netstate-dump value="./dataset/test%2001/netstate.xml"/>
        <tripinfo-output value="./dataset/test%2001/tripinfo.xml"/>
    </output>

    <time>
        <begin value="0"/>
        <end value="1000"/>
    </time>

    <traci_server>
        <remote-port value="51233"/>
    </traci_server>

</configuration>
-->

<netstate xmlns:xsi="http://www.w3.org/2001/XMLSchema-instance" xsi:noNamespaceSchemaLocation="http://sumo.dlr.de/xsd/netstate_file.xsd">
    <timestep time="0.00">
        <edge id="-918349269#0">
            <lane id="-918349269#0_0">
                <vehicle id="0" pos="5.10" speed="0.00"/>
            </lane>
        </edge>
    </timestep>
    <timestep time="1.00">
        <edge id="-918348944">
            <lane id="-918348944_0">
                <vehicle id="1" pos="5.10" speed="0.00"/>
            </lane>
        </edge>
        <edge id="-918349269#0">
            <lane id="-918349269#0_0">
                <vehicle id="0" pos="7.20" speed="2.10"/>
            </lane>
        </edge>
    </timestep>
    <timestep time="2.00">
        <edge id="-918348944">
            <lane id="-918348944_0">
                <vehicle id="1" pos="6.77" speed="1.67"/>
            </lane>
        </edge>
        <edge id="-918349269#0">
            <lane id="-918349269#0_0">
                <vehicle id="0" pos="10.91" speed="3.71"/>
            </lane>
        </edge>
        <edge id="914857034#0">
            <lane id="914857034#0_0">
                <vehicle id="2" pos="0.20" speed="0.00"/>
            </lane>
        </edge>
    </timestep>
    <timestep time="3.00">
        <edge id=":8749294680_2">
            <lane id=":8749294680_2_0">
                <vehicle id="2" pos="2.58" speed="2.58"/>
            </lane>
        </edge>
        <edge id="-918348944">
            <lane id="-918348944_0">
                <vehicle id="1" pos="10.32" speed="3.56"/>
            </lane>
        </edge>
        <edge id="-918349269#0">
            <lane id="-918349269#0_0">
                <vehicle id="0" pos="16.97" speed="6.06"/>
            </lane>
        </edge>
        <edge id="945072823">
            <lane id="945072823_0">
                <vehicle id="3" pos="5.10" speed="0.00"/>
            </lane>
        </edge>
    </timestep>
    <timestep time="4.00">
        <edge id="-918348944">
            <lane id="-918348944_0">
                <vehicle id="1" pos="15.73" speed="5.41"/>
            </lane>
        </edge>
        <edge id="-918349269#0">
            <lane id="-918349269#0_0">
                <vehicle id="0" pos="25.29" speed="8.32"/>
            </lane>
        </edge>
        <edge id="-945073866">
            <lane id="-945073866_0">
                <vehicle id="4" pos="5.10" speed="0.00"/>
            </lane>
        </edge>
        <edge id="914857034#1">
            <lane id="914857034#1_0">
                <vehicle id="2" pos="1.35" speed="4.78"/>
            </lane>
        </edge>
        <edge id="945072823">
            <lane id="945072823_0">
                <vehicle id="3" pos="7.59" speed="2.49"/>
            </lane>
        </edge>
    </timestep>
    <timestep time="5.00">
        <edge id="-909914270#10">
            <lane id="-909914270#10_0">
                <vehicle id="5" pos="5.10" speed="0.00"/>
            </lane>
        </edge>
        <edge id="-918348944">
            <lane id="-918348944_0">
                <vehicle id="1" pos="22.61" speed="6.88"/>
            </lane>
        </edge>
        <edge id="-918349269#0">
            <lane id="-918349269#0_0">
                <vehicle id="0" pos="35.45" speed="10.15"/>
            </lane>
        </edge>
        <edge id="-945073866">
            <lane id="-945073866_0">
                <vehicle id="4" pos="7.11" speed="2.01"/>
            </lane>
        </edge>
        <edge id="914857034#1">
            <lane id="914857034#1_0">
                <vehicle id="2" pos="8.62" speed="7.27"/>
            </lane>
        </edge>
        <edge id="945072823">
            <lane id="945072823_0">
                <vehicle id="3" pos="11.95" speed="4.36"/>
            </lane>
        </edge>
    </timestep>
    <timestep time="6.00">
        <edge id="-909914270#10">
            <lane id="-909914270#10_0">
                <vehicle id="5" pos="7.32" speed="2.22"/>
            </lane>
        </edge>
        <edge id="-918348944">
            <lane id="-918348944_0">
                <vehicle id="1" pos="31.39" speed="8.78"/>
            </lane>
        </edge>
        <edge id="-918349269#0">
            <lane id="-918349269#0_0">
                <vehicle id="0" pos="48.09" speed="12.64"/>
            </lane>
        </edge>
        <edge id="-945073866">
            <lane id="-945073866_0">
                <vehicle id="4" pos="10.95" speed="3.84"/>
            </lane>
        </edge>
        <edge id="914857034#1">
            <lane id="914857034#1_0">
                <vehicle id="2" pos="18.48" speed="9.86"/>
            </lane>
        </edge>
        <edge id="914857035#0">
            <lane id="914857035#0_0">
                <vehicle id="6" pos="5.10" speed="0.00"/>
            </lane>
        </edge>
        <edge id="945072823">
            <lane id="945072823_0">
                <vehicle id="3" pos="17.92" speed="5.97"/>
            </lane>
        </edge>
    </timestep>
    <timestep time="7.00">
        <edge id="-909914270#10">
            <lane id="-909914270#10_0">
                <vehicle id="5" pos="12.05" speed="4.73"/>
            </lane>
        </edge>
        <edge id="-918348944">
            <lane id="-918348944_0">
                <vehicle id="1" pos="42.69" speed="11.29"/>
            </lane>
        </edge>
        <edge id="-918349269#0">
            <lane id="-918349269#0_0">
                <vehicle id="0" pos="59.11" speed="11.02"/>
            </lane>
        </edge>
        <edge id="-945073866">
            <lane id="-945073866_0">
                <vehicle id="4" pos="15.61" speed="4.66"/>
            </lane>
        </edge>
        <edge id="914857034#1">
            <lane id="914857034#1_0">
                <vehicle id="2" pos="29.96" speed="11.48"/>
            </lane>
        </edge>
        <edge id="914857035#0">
            <lane id="914857035#0_0">
                <vehicle id="6" pos="6.99" speed="1.89"/>
            </lane>
        </edge>
        <edge id="945072823">
            <lane id="945072823_0">
                <vehicle id="3" pos="23.55" speed="5.63"/>
            </lane>
        </edge>
        <edge id="945073869">
            <lane id="945073869_0">
                <vehicle id="7" pos="5.10" speed="0.00"/>
            </lane>
        </edge>
    </timestep>
    <timestep time="8.00">
        <edge id=":8529174553_1">
            <lane id=":8529174553_1_0">
                <vehicle id="0" pos="1.38" speed="7.28"/>
            </lane>
        </edge>
        <edge id="-909914270#10">
            <lane id="-909914270#10_0">
                <vehicle id="5" pos="19.12" speed="7.07"/>
            </lane>
        </edge>
        <edge id="-918348944">
            <lane id="-918348944_0">
                <vehicle id="1" pos="55.28" speed="12.60"/>
            </lane>
        </edge>
        <edge id="-945073866">
            <lane id="-945073866_0">
                <vehicle id="4" pos="21.17" speed="5.55"/>
            </lane>
        </edge>
        <edge id="-946716295">
            <lane id="-946716295_0">
                <vehicle id="8" pos="5.10" speed="0.00"/>
            </lane>
        </edge>
        <edge id="914857034#1">
            <lane id="914857034#1_0">
                <vehicle id="2" pos="43.33" speed="13.37"/>
            </lane>
        </edge>
        <edge id="914857035#0">
            <lane id="914857035#0_0">
                <vehicle id="6" pos="11.22" speed="4.23"/>
            </lane>
        </edge>
        <edge id="945072823">
            <lane id="945072823_0">
                <vehicle id="3" pos="29.41" speed="5.86"/>
            </lane>
        </edge>
        <edge id="945073869">
            <lane id="945073869_0">
                <vehicle id="7" pos="6.77" speed="1.67"/>
            </lane>
        </edge>
    </timestep>
    <timestep time="9.00">
        <edge id=":8474076950_6">
            <lane id=":8474076950_6_0">
                <vehicle id="4" pos="0.42" speed="2.61"/>
            </lane>
        </edge>
        <edge id="-909914270#10">
            <lane id="-909914270#10_0">
                <vehicle id="5" pos="28.47" speed="9.36"/>
            </lane>
        </edge>
        <edge id="-918348944">
            <lane id="-918348944_0">
                <vehicle id="1" pos="67.55" speed="12.26"/>
            </lane>
        </edge>
        <edge id="-946716295">
            <lane id="-946716295_0">
                <vehicle id="8" pos="6.46" speed="1.36"/>
            </lane>
        </edge>
        <edge id="914857032#0">
            <lane id="914857032#0_0">
                <vehicle id="0" pos="5.02" speed="6.47"/>
            </lane>
        </edge>
        <edge id="914857034#1">
            <lane id="914857034#1_0">
                <vehicle id="2" pos="57.19" speed="13.85"/>
            </lane>
        </edge>
        <edge id="914857035#0">
            <lane id="914857035#0_0">
                <vehicle id="6" pos="16.78" speed="5.56"/>
            </lane>
        </edge>
        <edge id="918350369#0">
            <lane id="918350369#0_0">
                <vehicle id="9" pos="5.10" speed="0.00"/>
            </lane>
        </edge>
        <edge id="945072823">
            <lane id="945072823_0">
                <vehicle id="3" pos="35.07" speed="5.66"/>
            </lane>
        </edge>
        <edge id="945073869">
            <lane id="945073869_0">
                <vehicle id="7" pos="10.80" speed="4.03"/>
            </lane>
        </edge>
    </timestep>
    <timestep time="10.00">
        <edge id=":8474076950_6">
            <lane id=":8474076950_6_0">
                <vehicle id="4" pos="4.09" speed="3.67"/>
            </lane>
        </edge>
        <edge id="-909914270#10">
            <lane id="-909914270#10_0">
                <vehicle id="5" pos="39.75" speed="11.28"/>
            </lane>
        </edge>
        <edge id="-918348944">
            <lane id="-918348944_0">
                <vehicle id="1" pos="79.49" speed="11.94"/>
            </lane>
        </edge>
        <edge id="-946716295">
            <lane id="-946716295_0">
                <vehicle id="8" pos="9.32" speed="2.86"/>
            </lane>
        </edge>
        <edge id="914857032#0">
            <lane id="914857032#0_0">
                <vehicle id="0" pos="12.88" speed="7.86"/>
            </lane>
        </edge>
        <edge id="914857034#1">
            <lane id="914857034#1_0">
                <vehicle id="2" pos="67.13" speed="9.94"/>
            </lane>
        </edge>
        <edge id="914857035#0">
            <lane id="914857035#0_0">
                <vehicle id="6" pos="23.73" speed="6.95"/>
            </lane>
        </edge>
        <edge id="918350369#0">
            <lane id="918350369#0_0">
                <vehicle id="9" pos="6.85" speed="1.75"/>
            </lane>
        </edge>
        <edge id="945072823">
            <lane id="945072823_0">
                <vehicle id="3" pos="40.11" speed="5.05"/>
            </lane>
        </edge>
        <edge id="945073869">
            <lane id="945073869_0">
                <vehicle id="7" pos="15.70" speed="4.90"/>
            </lane>
        </edge>
    </timestep>
    <timestep time="11.00">
        <edge id="-909914270#10">
            <lane id="-909914270#10_0">
                <vehicle id="5" pos="50.50" speed="10.76"/>
            </lane>
        </edge>
        <edge id="-918348944">
            <lane id="-918348944_0">
                <vehicle id="1" pos="92.34" speed="12.85"/>
            </lane>
        </edge>
        <edge id="-946716295">
            <lane id="-946716295_0">
                <vehicle id="8" pos="13.39" speed="4.07"/>
            </lane>
        </edge>
        <edge id="914857032#0">
            <lane id="914857032#0_0">
                <vehicle id="0" pos="22.42" speed="9.54"/>
            </lane>
        </edge>
        <edge id="914857034#1">
            <lane id="914857034#1_0">
                <vehicle id="2" pos="72.90" speed="5.77"/>
            </lane>
        </edge>
        <edge id="914857035#0">
            <lane id="914857035#0_0">
                <vehicle id="6" pos="33.17" speed="9.44"/>
            </lane>
        </edge>
        <edge id="918350369#0">
            <lane id="918350369#0_0">
                <vehicle id="9" pos="10.82" speed="3.97"/>
            </lane>
        </edge>
        <edge id="945072823">
            <lane id="945072823_0">
                <vehicle id="3" pos="46.09" speed="5.97"/>
            </lane>
        </edge>
        <edge id="945073866">
            <lane id="945073866_0">
                <vehicle id="4" pos="2.70" speed="3.28"/>
            </lane>
        </edge>
        <edge id="945073869">
            <lane id="945073869_0">
                <vehicle id="7" pos="20.46" speed="4.76"/>
            </lane>
        </edge>
    </timestep>
    <timestep time="12.00">
        <edge id=":8498312509_6">
            <lane id=":8498312509_6_0">
                <vehicle id="2" pos="4.45" speed="8.33"/>
            </lane>
        </edge>
        <edge id=":8763493834_0">
            <lane id=":8763493834_0_0">
                <vehicle id="8" pos="2.03" speed="5.17"/>
            </lane>
        </edge>
        <edge id="-909914270#10">
            <lane id="-909914270#10_0">
                <vehicle id="5" pos="60.81" speed="10.30"/>
            </lane>
        </edge>
        <edge id="-918348944">
            <lane id="-918348944_0">
                <vehicle id="1" pos="104.82" speed="12.48"/>
            </lane>
        </edge>
        <edge id="914857032#0">
            <lane id="914857032#0_0">
                <vehicle id="0" pos="33.67" speed="11.26"/>
            </lane>
        </edge>
        <edge id="914857035#0">
            <lane id="914857035#0_0">
                <vehicle id="6" pos="42.17" speed="9.00"/>
            </lane>
        </edge>
        <edge id="918350369#0">
            <lane id="918350369#0_0">
                <vehicle id="9" pos="16.47" speed="5.65"/>
            </lane>
        </edge>
        <edge id="945072823">
            <lane id="945072823_0">
                <vehicle id="3" pos="51.76" speed="5.67"/>
            </lane>
        </edge>
        <edge id="945073866">
            <lane id="945073866_0">
                <vehicle id="4" pos="7.88" speed="5.19"/>
            </lane>
        </edge>
        <edge id="945073869">
            <lane id="945073869_0">
                <vehicle id="7" pos="25.24" speed="4.79"/>
            </lane>
        </edge>
    </timestep>
    <timestep time="13.00">
        <edge id=":8498312509_6">
            <lane id=":8498312509_6_0">
                <vehicle id="2" pos="9.89" speed="5.44"/>
            </lane>
        </edge>
        <edge id=":8763493834_6">
            <lane id=":8763493834_6_0">
                <vehicle id="6" pos="2.37" speed="4.50"/>
            </lane>
        </edge>
        <edge id="-909914270#10">
            <lane id="-909914270#10_0">
                <vehicle id="5" pos="68.26" speed="7.45"/>
            </lane>
        </edge>
        <edge id="-914857035#0">
            <lane id="-914857035#0_0">
                <vehicle id="8" pos="0.61" speed="4.39"/>
            </lane>
        </edge>
        <edge id="-918348944">
            <lane id="-918348944_0">
                <vehicle id="1" pos="117.61" speed="12.79"/>
            </lane>
        </edge>
        <edge id="914857032#0">
            <lane id="914857032#0_0">
                <vehicle id="0" pos="46.82" speed="13.14"/>
            </lane>
        </edge>
        <edge id="918350369#0">
            <lane id="918350369#0_0">
                <vehicle id="9" pos="24.18" speed="7.71"/>
            </lane>
        </edge>
        <edge id="945072823">
            <lane id="945072823_0">
                <vehicle id="3" pos="57.77" speed="6.01"/>
            </lane>
        </edge>
        <edge id="945073866">
            <lane id="945073866_0">
                <vehicle id="4" pos="13.43" speed="5.54"/>
            </lane>
        </edge>
        <edge id="945073869">
            <lane id="945073869_0">
                <vehicle id="7" pos="28.96" speed="3.72"/>
            </lane>
        </edge>
    </timestep>
    <timestep time="14.00">
        <edge id=":8749321638_0">
            <lane id=":8749321638_0_0">
                <vehicle id="7" pos="0.38" speed="2.98"/>
            </lane>
        </edge>
        <edge id=":8763493834_7">
            <lane id=":8763493834_7_0">
                <vehicle id="6" pos="5.80" speed="6.08"/>
            </lane>
        </edge>
        <edge id="-909914270#10">
            <lane id="-909914270#10_0">
                <vehicle id="5" pos="71.70" speed="3.44"/>
            </lane>
        </edge>
        <edge id="-914857035#0">
            <lane id="-914857035#0_0">
                <vehicle id="8" pos="7.37" speed="6.76"/>
            </lane>
        </edge>
        <edge id="-918348944">
            <lane id="-918348944_0">
                <vehicle id="1" pos="130.56" speed="12.95"/>
            </lane>
        </edge>
        <edge id="914857032#0">
            <lane id="914857032#0_0">
                <vehicle id="0" pos="60.36" speed="13.55"/>
            </lane>
        </edge>
        <edge id="918350369#0">
            <lane id="918350369#0_0">
                <vehicle id="9" pos="33.68" speed="9.50"/>
            </lane>
        </edge>
        <edge id="945072823">
            <lane id="945072823_0">
                <vehicle id="3" pos="62.67" speed="4.90"/>
            </lane>
        </edge>
        <edge id="945072827">
            <lane id="945072827_0">
                <vehicle id="2" pos="5.14" speed="5.49"/>
            </lane>
        </edge>
        <edge id="945073866">
            <lane id="945073866_0">
                <vehicle id="4" pos="19.05" speed="5.62"/>
            </lane>
        </edge>
    </timestep>
    <timestep time="15.00">
        <edge id=":8498312487_11">
            <lane id=":8498312487_11_0">
                <vehicle id="5" pos="0.10" speed="2.77"/>
            </lane>
        </edge>
        <edge id=":8749321638_0">
            <lane id=":8749321638_0_0">
                <vehicle id="7" pos="3.52" speed="3.14"/>
            </lane>
        </edge>
        <edge id="-914857035#0">
            <lane id="-914857035#0_0">
                <vehicle id="8" pos="15.48" speed="8.12"/>
            </lane>
        </edge>
        <edge id="-918348944">
            <lane id="-918348944_0">
                <vehicle id="1" pos="139.37" speed="8.81"/>
            </lane>
        </edge>
        <edge id="914857032#0">
            <lane id="914857032#0_0">
                <vehicle id="0" pos="74.58" speed="14.22"/>
            </lane>
        </edge>
        <edge id="918350369#0">
            <lane id="918350369#0_0">
                <vehicle id="9" pos="44.45" speed="10.77"/>
            </lane>
        </edge>
        <edge id="945072823">
            <lane id="945072823_0">
                <vehicle id="3" pos="67.69" speed="5.02"/>
            </lane>
        </edge>
        <edge id="945072827">
            <lane id="945072827_0">
                <vehicle id="2" pos="9.56" speed="4.42"/>
            </lane>
        </edge>
        <edge id="945073866">
            <lane id="945073866_0">
                <vehicle id="4" pos="23.18" speed="4.13"/>
            </lane>
        </edge>
        <edge id="946716295">
            <lane id="946716295_0">
                <vehicle id="6" pos="3.30" speed="4.94"/>
            </lane>
        </edge>
    </timestep>
    <timestep time="16.00">
        <edge id=":8498312487_11">
            <lane id=":8498312487_11_0">
                <vehicle id="5" pos="2.53" speed="2.43"/>
            </lane>
        </edge>
        <edge id=":8749321633_0">
            <lane id=":8749321633_0_0">
                <vehicle id="4" pos="2.49" speed="2.66"/>
            </lane>
        </edge>
        <edge id="-914857035#0">
            <lane id="-914857035#0_0">
                <vehicle id="8" pos="25.22" speed="9.74"/>
            </lane>
        </edge>
        <edge id="-918348944">
            <lane id="-918348944_0">
                <vehicle id="1" pos="144.93" speed="5.55"/>
            </lane>
        </edge>
        <edge id="-945073869">
            <lane id="-945073869_0">
                <vehicle id="7" pos="1.64" speed="2.79"/>
            </lane>
        </edge>
        <edge id="914857032#0">
            <lane id="914857032#0_0">
                <vehicle id="0" pos="89.21" speed="14.63"/>
            </lane>
        </edge>
        <edge id="918350369#0">
            <lane id="918350369#0_0">
                <vehicle id="9" pos="55.53" speed="11.08"/>
            </lane>
        </edge>
        <edge id="945072823">
            <lane id="945072823_0">
                <vehicle id="3" pos="72.85" speed="5.15"/>
            </lane>
        </edge>
        <edge id="945072827">
            <lane id="945072827_0">
                <vehicle id="2" pos="14.62" speed="5.06"/>
            </lane>
        </edge>
        <edge id="946716295">
            <lane id="946716295_0">
                <vehicle id="6" pos="8.76" speed="5.46"/>
            </lane>
        </edge>
    </timestep>
    <timestep time="17.00">
        <edge id=":8529172789_0">
            <lane id=":8529172789_0_0">
                <vehicle id="1" pos="3.84" speed="5.06"/>
            </lane>
        </edge>
        <edge id="-914857035#0">
            <lane id="-914857035#0_0">
                <vehicle id="8" pos="36.36" speed="11.14"/>
            </lane>
        </edge>
        <edge id="-945073866">
            <lane id="-945073866_0">
                <vehicle id="4" pos="1.10" speed="3.28"/>
            </lane>
        </edge>
        <edge id="-945073869">
            <lane id="-945073869_0">
                <vehicle id="7" pos="5.92" speed="4.29"/>
            </lane>
        </edge>
        <edge id="909914270#10">
            <lane id="909914270#10_0">
                <vehicle id="5" pos="1.58" speed="2.28"/>
            </lane>
        </edge>
        <edge id="914857032#0">
            <lane id="914857032#0_0">
                <vehicle id="0" pos="103.03" speed="13.82"/>
            </lane>
        </edge>
        <edge id="918350369#0">
            <lane id="918350369#0_0">
                <vehicle id="9" pos="66.78" speed="11.26"/>
            </lane>
        </edge>
        <edge id="945072823">
            <lane id="945072823_0">
                <vehicle id="3" pos="78.08" speed="5.23"/>
            </lane>
        </edge>
        <edge id="945072827">
            <lane id="945072827_0">
                <vehicle id="2" pos="19.28" speed="4.66"/>
            </lane>
        </edge>
        <edge id="946716295">
            <lane id="946716295_0">
                <vehicle id="6" pos="14.12" speed="5.36"/>
            </lane>
        </edge>
    </timestep>
    <timestep time="18.00">
        <edge id=":8529172789_0">
            <lane id=":8529172789_0_0">
                <vehicle id="1" pos="9.21" speed="5.37"/>
            </lane>
        </edge>
        <edge id=":8763493831_0">
            <lane id=":8763493831_0_0">
                <vehicle id="6" pos="1.30" speed="3.28"/>
            </lane>
        </edge>
        <edge id="-914857035#0">
            <lane id="-914857035#0_0">
                <vehicle id="8" pos="43.01" speed="6.65"/>
            </lane>
        </edge>
        <edge id="-945073866">
            <lane id="-945073866_0">
                <vehicle id="4" pos="6.00" speed="4.89"/>
            </lane>
        </edge>
        <edge id="-945073869">
            <lane id="-945073869_0">
                <vehicle id="7" pos="10.74" speed="4.81"/>
            </lane>
        </edge>
        <edge id="909914270#10">
            <lane id="909914270#10_0">
                <vehicle id="5" pos="5.17" speed="3.59"/>
            </lane>
        </edge>
        <edge id="914857032#0">
            <lane id="914857032#0_0">
                <vehicle id="0" pos="116.47" speed="13.44"/>
            </lane>
        </edge>
        <edge id="918350369#0">
            <lane id="918350369#0_0">
                <vehicle id="9" pos="77.78" speed="10.99"/>
            </lane>
        </edge>
        <edge id="945072823">
            <lane id="945072823_0">
                <vehicle id="3" pos="83.12" speed="5.04"/>
            </lane>
        </edge>
        <edge id="945072827">
            <lane id="945072827_0">
                <vehicle id="2" pos="24.45" speed="5.17"/>
            </lane>
        </edge>
    </timestep>
    <timestep time="19.00">
        <edge id=":8498312499_1">
            <lane id=":8498312499_1_0">
                <vehicle id="8" pos="6.93" speed="7.18"/>
            </lane>
        </edge>
        <edge id=":8763493831_0">
            <lane id=":8763493831_0_0">
                <vehicle id="6" pos="4.48" speed="3.19"/>
            </lane>
        </edge>
        <edge id="-918350369#1">
            <lane id="-918350369#1_0">
                <vehicle id="1" pos="5.45" speed="5.53"/>
            </lane>
        </edge>
        <edge id="-945073866">
            <lane id="-945073866_0">
                <vehicle id="4" pos="10.55" speed="4.56"/>
            </lane>
        </edge>
        <edge id="-945073869">
            <lane id="-945073869_0">
                <vehicle id="7" pos="14.44" speed="3.71"/>
            </lane>
        </edge>
        <edge id="909914270#10">
            <lane id="909914270#10_0">
                <vehicle id="5" pos="10.41" speed="5.24"/>
            </lane>
        </edge>
        <edge id="914857032#0">
            <lane id="914857032#0_0">
                <vehicle id="0" pos="131.02" speed="14.55"/>
            </lane>
        </edge>
        <edge id="918350369#0">
            <lane id="918350369#0_0">
                <vehicle id="9" pos="88.92" speed="11.14"/>
            </lane>
        </edge>
        <edge id="945072823">
            <lane id="945072823_0">
                <vehicle id="3" pos="89.08" speed="5.96"/>
            </lane>
        </edge>
        <edge id="945072827">
            <lane id="945072827_0">
                <vehicle id="2" pos="29.85" speed="5.40"/>
            </lane>
        </edge>
    </timestep>
    <timestep time="20.00">
        <edge id=":8498312499_1">
            <lane id=":8498312499_1_0">
                <vehicle id="8" pos="13.90" speed="6.97"/>
            </lane>
        </edge>
        <edge id=":8749294659_0">
            <lane id=":8749294659_0_0">
                <vehicle id="3" pos="2.75" speed="3.61"/>
            </lane>
        </edge>
        <edge id="-918350369#1">
            <lane id="-918350369#1_0">
                <vehicle id="1" pos="13.35" speed="7.90"/>
            </lane>
        </edge>
        <edge id="-945073866">
            <lane id="-945073866_0">
                <vehicle id="4" pos="15.61" speed="5.05"/>
            </lane>
        </edge>
        <edge id="-945073869">
            <lane id="-945073869_0">
                <vehicle id="7" pos="19.15" speed="4.71"/>
            </lane>
        </edge>
        <edge id="-946716295">
            <lane id="-946716295_0">
                <vehicle id="6" pos="3.50" speed="3.69"/>
            </lane>
        </edge>
        <edge id="909914270#10">
            <lane id="909914270#10_0">
                <vehicle id="5" pos="17.56" speed="7.15"/>
            </lane>
        </edge>
        <edge id="914857032#0">
            <lane id="914857032#0_0">
                <vehicle id="0" pos="145.34" speed="14.32"/>
            </lane>
        </edge>
        <edge id="918350369#0">
            <lane id="918350369#0_0">
                <vehicle id="9" pos="100.71" speed="11.79"/>
            </lane>
        </edge>
        <edge id="945072827">
            <lane id="945072827_0">
                <vehicle id="2" pos="34.57" speed="4.73"/>
            </lane>
        </edge>
    </timestep>
    <timestep time="21.00">
        <edge id="-914857034#2">
            <lane id="-914857034#2_0">
                <vehicle id="8" pos="7.22" speed="7.23"/>
            </lane>
        </edge>
        <edge id="-918350369#1">
            <lane id="-918350369#1_0">
                <vehicle id="1" pos="23.15" speed="9.79"/>
            </lane>
        </edge>
        <edge id="-945072823">
            <lane id="-945072823_0">
                <vehicle id="3" pos="1.98" speed="3.90"/>
            </lane>
        </edge>
        <edge id="-945073866">
            <lane id="-945073866_0">
                <vehicle id="4" pos="20.89" speed="5.28"/>
            </lane>
        </edge>
        <edge id="-945073869">
            <lane id="-945073869_0">
                <vehicle id="7" pos="22.92" speed="3.77"/>
            </lane>
        </edge>
        <edge id="-946716295">
            <lane id="-946716295_0">
                <vehicle id="6" pos="8.77" speed="5.27"/>
            </lane>
        </edge>
        <edge id="909914270#10">