<?xml version="1.0" encoding="UTF-8"?>

<!-- generated on 2025-04-22 15:10:26 by Eclipse SUMO GUI Version 1.12.0
<configuration xmlns:xsi="http://www.w3.org/2001/XMLSchema-instance" xsi:noNamespaceSchemaLocation="http://sumo.dlr.de/xsd/sumoConfiguration.xsd">

    <input>
        <net-file value="./dataset/test%2002/net.xml"/>
        <route-files value="./dataset/test%2002/routes.xml"/>
    </input>

    <output>
        <netstate-dump value="./dataset/test%2002/netstate.xml"/>
        <tripinfo-output value="./dataset/test%2002/tripinfo.xml"/>
    </output>

    <time>
        <begin value="0"/>
        <end value="1000"/>
    </time>

    <traci_server>
        <remote-port value="35117"/>
    </traci_server>

</configuration>
-->

<netstate xmlns:xsi="http://www.w3.org/2001/XMLSchema-instance" xsi:noNamespaceSchemaLocation="http://sumo.dlr.de/xsd/netstate_file.xsd">
    <timestep time="0.00">
        <edge id="-918350368">
            <lane id="-918350368_0">
                <vehicle id="0" pos="5.10" speed="0.00"/>
            </lane>
        </edge>
    </timestep>
    <timestep time="1.00">
        <edge id="-918350368">
            <lane id="-918350368_0">
                <vehicle id="0" pos="7.62" speed="2.52"/>
            </lane>
        </edge>
        <edge id="914854027#1">
            <lane id="914854027#1_0">
                <vehicle id="1" pos="5.10" speed="0.00"/>
            </lane>
        </edge>
    </timestep>
    <timestep time="2.00">
        <edge id="-918350368">
            <lane id="-918350368_0">
                <vehicle id="0" pos="11.77" speed="4.15"/>
            </lane>
        </edge>
        <edge id="909914270#32">
            <lane id="909914270#32_0">
                <vehicle id="2" pos="5.10" speed="0.00"/>
            </lane>
        </edge>
        <edge id="914854027#1">
            <lane id="914854027#1_0">
                <vehicle id="1" pos="6.48" speed="1.38"/>
            </lane>
        </edge>
    </timestep>
    <timestep time="3.00">
        <edge id="-912217163#2">
            <lane id="-912217163#2_0">
                <vehicle id="3" pos="5.10" speed="0.00"/>
            </lane>
        </edge>
        <edge id="-918350368">
            <lane id="-918350368_0">
                <vehicle id="0" pos="17.47" speed="5.70"/>
            </lane>
        </edge>
        <edge id="909914270#32">
            <lane id="909914270#32_0">
                <vehicle id="2" pos="7.09" speed="1.99"/>
            </lane>
        </edge>
        <edge id="914854027#1">
            <lane id="914854027#1_0">
                <vehicle id="1" pos="9.55" speed="3.07"/>
            </lane>
        </edge>
    </timestep>
    <timestep time="4.00">
        <edge id="-912217163#2">
            <lane id="-912217163#2_0">
                <vehicle id="3" pos="7.02" speed="1.92"/>
            </lane>
        </edge>
        <edge id="-918350368">
            <lane id="-918350368_0">
                <vehicle id="0" pos="25.70" speed="8.23"/>
            </lane>
        </edge>
        <edge id="909914270#32">
            <lane id="909914270#32_0">
                <vehicle id="2" pos="10.52" speed="3.43"/>
            </lane>
        </edge>
        <edge id="914854027#1">
            <lane id="914854027#1_0">
                <vehicle id="1" pos="14.34" speed="4.79"/>
            </lane>
        </edge>
        <edge id="946716296">
            <lane id="946716296_0">
                <vehicle id="4" pos="5.10" speed="0.00"/>
            </lane>
        </edge>
    </timestep>
    <timestep time="5.00">
        <edge id="-912217163#2">
            <lane id="-912217163#2_0">
                <vehicle id="3" pos="10.66" speed="3.64"/>
            </lane>
        </edge>
        <edge id="-918350368">
            <lane id="-918350368_0">
                <vehicle id="0" pos="35.54" speed="9.84"/>
            </lane>
        </edge>
        <edge id="909914270#32">
            <lane id="909914270#32_0">
                <vehicle id="2" pos="16.38" speed="5.86"/>
            </lane>
        </edge>
        <edge id="914854027#1">
            <lane id="914854027#1_0">
                <vehicle id="1" pos="21.01" speed="6.67"/>
            </lane>
        </edge>
        <edge id="918345955#1">
            <lane id="918345955#1_0">
                <vehicle id="5" pos="5.10" speed="0.00"/>
            </lane>
        </edge>
        <edge id="946716296">
            <lane id="946716296_0">
                <vehicle id="4" pos="7.30" speed="2.20"/>
            </lane>
        </edge>
    </timestep>
    <timestep time="6.00">
        <edge id="-912217163#2">
            <lane id="-912217163#2_0">
                <vehicle id="3" pos="16.30" speed="5.64"/>
            </lane>
        </edge>
        <edge id="-914857033#2">
            <lane id="-914857033#2_0">
                <vehicle id="6" pos="5.10" speed="0.00"/>
            </lane>
        </edge>
        <edge id="-918350368">
            <lane id="-918350368_0">
                <vehicle id="0" pos="47.26" speed="11.72"/>
            </lane>
        </edge>
        <edge id="909914270#32">
            <lane id="909914270#32_0">
                <vehicle id="2" pos="24.24" speed="7.86"/>
            </lane>
        </edge>
        <edge id="914854027#1">
            <lane id="914854027#1_0">
                <vehicle id="1" pos="29.10" speed="8.09"/>
            </lane>
        </edge>
        <edge id="918345955#1">
            <lane id="918345955#1_0">
                <vehicle id="5" pos="7.69" speed="2.59"/>
            </lane>
        </edge>
        <edge id="946716296">
            <lane id="946716296_0">
                <vehicle id="4" pos="11.52" speed="4.22"/>
            </lane>
        </edge>
    </timestep>
    <timestep time="7.00">
        <edge id="-912217163#2">
            <lane id="-912217163#2_0">
                <vehicle id="3" pos="24.39" speed="8.09"/>
            </lane>
        </edge>
        <edge id="-914857033#2">
            <lane id="-914857033#2_0">
                <vehicle id="6" pos="7.20" speed="2.10"/>
            </lane>
        </edge>
        <edge id="-918350368">
            <lane id="-918350368_0">
                <vehicle id="0" pos="60.84" speed="13.59"/>
            </lane>
        </edge>
        <edge id="-946716303">
            <lane id="-946716303_0">
                <vehicle id="7" pos="5.10" speed="0.00"/>
            </lane>
        </edge>
        <edge id="909914270#32">
            <lane id="909914270#32_0">
                <vehicle id="2" pos="34.42" speed="10.17"/>
            </lane>
        </edge>
        <edge id="914854027#1">
            <lane id="914854027#1_0">
                <vehicle id="1" pos="39.29" speed="10.19"/>
            </lane>
        </edge>
        <edge id="918345955#1">
            <lane id="918345955#1_0">
                <vehicle id="5" pos="12.22" speed="4.53"/>
            </lane>
        </edge>
        <edge id="946716296">
            <lane id="946716296_0">
                <vehicle id="4" pos="17.91" speed="6.39"/>
            </lane>
        </edge>
    </timestep>
    <timestep time="8.00">
        <edge id=":8763493887_0">
            <lane id=":8763493887_0_0">
                <vehicle id="6" pos="0.92" speed="3.71"/>
            </lane>
        </edge>
        <edge id="-912217163#2">
            <lane id="-912217163#2_0">
                <vehicle id="3" pos="34.67" speed="10.28"/>
            </lane>
        </edge>
        <edge id="-918350368">
            <lane id="-918350368_0">
                <vehicle id="0" pos="75.51" speed="14.66"/>
            </lane>
        </edge>
        <edge id="-946716303">
            <lane id="-946716303_0">
                <vehicle id="7" pos="6.77" speed="1.67"/>
            </lane>
        </edge>
        <edge id="909914270#18">
            <lane id="909914270#18_0">
                <vehicle id="8" pos="5.10" speed="0.00"/>
            </lane>
        </edge>
        <edge id="909914270#32">
            <lane id="909914270#32_0">
                <vehicle id="2" pos="46.28" speed="11.86"/>
            </lane>
        </edge>
        <edge id="914854027#1">
            <lane id="914854027#1_0">
                <vehicle id="1" pos="51.98" speed="12.69"/>
            </lane>
        </edge>
        <edge id="918345955#1">
            <lane id="918345955#1_0">
                <vehicle id="5" pos="18.27" speed="6.05"/>
            </lane>
        </edge>
        <edge id="946716296">
            <lane id="946716296_0">
                <vehicle id="4" pos="26.60" speed="8.69"/>
            </lane>
        </edge>
    </timestep>
    <timestep time="9.00">
        <edge id=":8749321635_5">
            <lane id=":8749321635_5_0">
                <vehicle id="5" pos="2.32" speed="8.14"/>
            </lane>
        </edge>
        <edge id="-912217163#2">
            <lane id="-912217163#2_0">
                <vehicle id="3" pos="46.84" speed="12.17"/>
            </lane>
        </edge>
        <edge id="-914857033#1">
            <lane id="-914857033#1_0">
                <vehicle id="6" pos="1.64" speed="5.73"/>
            </lane>
        </edge>
        <edge id="-918350368">
            <lane id="-918350368_0">
                <vehicle id="0" pos="89.99" speed="14.48"/>
            </lane>
        </edge>
        <edge id="-946716303">
            <lane id="-946716303_0">
                <vehicle id="7" pos="10.80" speed="4.03"/>
            </lane>
        </edge>
        <edge id="909914270#18">
            <lane id="909914270#18_0">
                <vehicle id="8" pos="6.44" speed="1.34"/>
            </lane>
        </edge>
        <edge id="909914270#32">
            <lane id="909914270#32_0">
                <vehicle id="2" pos="60.01" speed="13.73"/>
            </lane>
        </edge>
        <edge id="914854027#1">
            <lane id="914854027#1_0">
                <vehicle id="1" pos="64.11" speed="12.13"/>
            </lane>
        </edge>
        <edge id="918345955#1">
            <lane id="918345955#1_0">
                <vehicle id="9" pos="5.10" speed="0.00"/>
            </lane>
        </edge>
        <edge id="946716296">
            <lane id="946716296_0">
                <vehicle id="4" pos="37.05" speed="10.45"/>
            </lane>
        </edge>
    </timestep>
    <timestep time="10.00">
        <edge id="-912217163#2">
            <lane id="-912217163#2_0">
                <vehicle id="3" pos="61.27" speed="14.43"/>
            </lane>
        </edge>
        <edge id="-914857033#1">
            <lane id="-914857033#1_0">
                <vehicle id="6" pos="9.04" speed="7.40"/>
            </lane>
        </edge>
        <edge id="-918350368">
            <lane id="-918350368_0">
                <vehicle id="0" pos="103.87" speed="13.87"/>
            </lane>
        </edge>
        <edge id="-946716303">
            <lane id="-946716303_0">
                <vehicle id="7" pos="15.70" speed="4.90"/>
            </lane>
        </edge>
        <edge id="909914270#18">
            <lane id="909914270#18_0">
                <vehicle id="8" pos="9.84" speed="3.40"/>
            </lane>
        </edge>
        <edge id="909914270#32">
            <lane id="909914270#32_0">
                <vehicle id="2" pos="73.35" speed="13.35"/>
            </lane>
        </edge>
        <edge id="914854027#1">
            <lane id="914854027#1_0">
                <vehicle id="1" pos="75.86" speed="11.75"/>
            </lane>
        </edge>
        <edge id="918345955#1">
            <lane id="918345955#1_0">
                <vehicle id="9" pos="6.46" speed="1.36"/>
            </lane>
        </edge>
        <edge id="918345955#2">
            <lane id="918345955#2_0">
                <vehicle id="5" pos="2.92" speed="10.01"/>
            </lane>
        </edge>
        <edge id="946716296">
            <lane id="946716296_0">
                <vehicle id="4" pos="50.10" speed="13.04"/>
            </lane>
        </edge>
    </timestep>
    <timestep time="11.00">
        <edge id=":8474076794_2">
            <lane id=":8474076794_2_0">
                <vehicle id="3" pos="2.65" speed="14.32"/>
            </lane>
        </edge>
        <edge id="-914857033#1">
            <lane id="-914857033#1_0">
                <vehicle id="6" pos="18.29" speed="9.25"/>
            </lane>
        </edge>
        <edge id="-918350368">
            <lane id="-918350368_0">
                <vehicle id="0" pos="118.16" speed="14.30"/>
            </lane>
        </edge>
        <edge id="-946716303">
            <lane id="-946716303_0">
                <vehicle id="7" pos="20.46" speed="4.76"/>
            </lane>
        </edge>
        <edge id="909914270#18">
            <lane id="909914270#18_0">
                <vehicle id="8" pos="14.84" speed="5.00"/>
            </lane>
        </edge>
        <edge id="909914270#32">
            <lane id="909914270#32_0">
                <vehicle id="2" pos="86.38" speed="13.02"/>
            </lane>
        </edge>
        <edge id="914854027#1">
            <lane id="914854027#1_0">
                <vehicle id="1" pos="88.72" speed="12.86"/>
            </lane>
        </edge>
        <edge id="918345955#1">
            <lane id="918345955#1_0">
                <vehicle id="9" pos="9.40" speed="2.94"/>
            </lane>
        </edge>
        <edge id="918345955#2">
            <lane id="918345955#2_0">
                <vehicle id="5" pos="8.63" speed="5.70"/>
            </lane>
        </edge>
        <edge id="946716296">
            <lane id="946716296_0">
                <vehicle id="4" pos="63.51" speed="13.42"/>
            </lane>
        </edge>
    </timestep>
    <timestep time="12.00">
        <edge id=":8474076925_0">
            <lane id=":8474076925_0_0">
                <vehicle id="2" pos="2.89" speed="13.61"/>
            </lane>
        </edge>
        <edge id=":8749321637_5">
            <lane id=":8749321637_5_0">
                <vehicle id="5" pos="2.83" speed="4.06"/>
            </lane>
        </edge>
        <edge id=":8763493885_0">
            <lane id=":8763493885_0_0">
                <vehicle id="7" pos="1.07" speed="4.22"/>
            </lane>
        </edge>
        <edge id="-912217163#1">
            <lane id="-912217163#1_0">
                <vehicle id="3" pos="5.15" speed="14.23"/>
            </lane>
        </edge>
        <edge id="-914857033#1">
            <lane id="-914857033#1_0">
                <vehicle id="6" pos="29.01" speed="10.72"/>
            </lane>
        </edge>
        <edge id="-918350368">
            <lane id="-918350368_0">
                <vehicle id="0" pos="132.04" speed="13.87"/>
            </lane>
        </edge>
        <edge id="909914270#18">
            <lane id="909914270#18_0">
                <vehicle id="8" pos="21.69" speed="6.86"/>
            </lane>
        </edge>
        <edge id="914854027#1">
            <lane id="914854027#1_0">
                <vehicle id="1" pos="99.07" speed="10.35"/>
            </lane>
        </edge>
        <edge id="918345955#1">
            <lane id="918345955#1_0">
                <vehicle id="9" pos="14.25" speed="4.84"/>
            </lane>
        </edge>
        <edge id="946716296">
            <lane id="946716296_0">
                <vehicle id="4" pos="76.63" speed="13.11"/>
            </lane>
        </edge>
    </timestep>
    <timestep time="13.00">
        <edge id=":8763493885_0">
            <lane id=":8763493885_0_0">
                <vehicle id="7" pos="4.58" speed="3.51"/>
            </lane>
        </edge>
        <edge id="-912217163#1">
            <lane id="-912217163#1_0">
                <vehicle id="3" pos="20.05" speed="14.90"/>
            </lane>
        </edge>
        <edge id="-914857033#1">
            <lane id="-914857033#1_0">
                <vehicle id="6" pos="42.22" speed="13.20"/>
            </lane>
        </edge>
        <edge id="-918350368">
            <lane id="-918350368_0">
                <vehicle id="0" pos="146.02" speed="13.98"/>
            </lane>
        </edge>
        <edge id="909914270#18">
            <lane id="909914270#18_0">
                <vehicle id="8" pos="31.08" speed="9.39"/>
            </lane>
        </edge>
        <edge id="909914270#33">
            <lane id="909914270#33_0">
                <vehicle id="2" pos="6.70" speed="13.22"/>
            </lane>
        </edge>
        <edge id="914854028#0">
            <lane id="914854028#0_0">
                <vehicle id="1" pos="6.76" speed="8.88"/>
            </lane>
        </edge>
        <edge id="918345955#1">
            <lane id="918345955#1_0">
                <vehicle id="9" pos="20.62" speed="6.38"/>
            </lane>
        </edge>
        <edge id="945073868">
            <lane id="945073868_0">
                <vehicle id="5" pos="1.55" speed="3.79"/>
            </lane>
        </edge>
        <edge id="946716296">
            <lane id="946716296_0">
                <vehicle id="4" pos="90.64" speed="14.01"/>
            </lane>
        </edge>
    </timestep>
    <timestep time="14.00">
        <edge id=":8749321635_6">
            <lane id=":8749321635_6_0">
                <vehicle id="9" pos="1.44" speed="4.91"/>
            </lane>
        </edge>
        <edge id=":8763493883_0">
            <lane id=":8763493883_0_0">
                <vehicle id="7" pos="2.36" speed="3.97"/>
            </lane>
        </edge>
        <edge id="-912217163#1">
            <lane id="-912217163#1_0">
                <vehicle id="3" pos="34.01" speed="13.96"/>
            </lane>
        </edge>
        <edge id="-914857033#1">
            <lane id="-914857033#1_0">
                <vehicle id="6" pos="56.05" speed="13.83"/>
            </lane>
        </edge>
        <edge id="-918350368">
            <lane id="-918350368_0">
                <vehicle id="0" pos="159.72" speed="13.70"/>
            </lane>
        </edge>
        <edge id="909914270#18">
            <lane id="909914270#18_0">
                <vehicle id="8" pos="36.39" speed="5.31"/>
            </lane>
        </edge>
        <edge id="909914270#33">
            <lane id="909914270#33_0">
                <vehicle id="2" pos="19.43" speed="12.74"/>
            </lane>
        </edge>
        <edge id="914854028#0">
            <lane id="914854028#0_0">
                <vehicle id="1" pos="17.64" speed="10.88"/>
            </lane>
        </edge>
        <edge id="945073868">
            <lane id="945073868_0">
                <vehicle id="5" pos="5.60" speed="4.05"/>
            </lane>
        </edge>
        <edge id="946716296">
            <lane id="946716296_0">
                <vehicle id="4" pos="104.84" speed="14.20"/>
            </lane>
        </edge>
    </timestep>
    <timestep time="15.00">
        <edge id=":8749294683_3">
            <lane id=":8749294683_3_0">
                <vehicle id="8" pos="3.70" speed="4.54"/>
            </lane>
        </edge>
        <edge id=":8749321635_7">
            <lane id=":8749321635_7_0">
                <vehicle id="9" pos="3.82" speed="5.64"/>
            </lane>
        </edge>
        <edge id=":8763493883_0">
            <lane id=":8763493883_0_0">
                <vehicle id="7" pos="8.85" speed="6.49"/>
            </lane>
        </edge>
        <edge id="-912217163#1">
            <lane id="-912217163#1_0">
                <vehicle id="3" pos="48.50" speed="14.49"/>
            </lane>
        </edge>
        <edge id="-914857033#1">
            <lane id="-914857033#1_0">
                <vehicle id="6" pos="70.57" speed="14.52"/>
            </lane>
        </edge>
        <edge id="-918350368">
            <lane id="-918350368_0">
                <vehicle id="0" pos="173.89" speed="14.17"/>
            </lane>
        </edge>
        <edge id="909914270#33">
            <lane id="909914270#33_0">
                <vehicle id="2" pos="31.18" speed="11.75"/>
            </lane>
        </edge>
        <edge id="914854028#0">
            <lane id="914854028#0_0">
                <vehicle id="1" pos="25.18" speed="7.54"/>
            </lane>
        </edge>
        <edge id="945073868">
            <lane id="945073868_0">
                <vehicle id="5" pos="9.58" speed="3.98"/>
            </lane>
        </edge>
        <edge id="946716296">
            <lane id="946716296_0">
                <vehicle id="4" pos="118.07" speed="13.23"/>
            </lane>
        </edge>
    </timestep>
    <timestep time="16.00">
        <edge id=":8767332505_3">
            <lane id=":8767332505_3_0">
                <vehicle id="1" pos="3.11" speed="4.47"/>
            </lane>
        </edge>
        <edge id="-912217163#1">
            <lane id="-912217163#1_0">
                <vehicle id="3" pos="62.90" speed="14.40"/>
            </lane>
        </edge>
        <edge id="-914857033#1">
            <lane id="-914857033#1_0">
                <vehicle id="6" pos="84.12" speed="13.55"/>
            </lane>
        </edge>
        <edge id="-918350368">
            <lane id="-918350368_0">
                <vehicle id="0" pos="187.76" speed="13.86"/>
            </lane>
        </edge>
        <edge id="909914270#18">
            <lane id="909914270#18_0">
                <vehicle id="7" pos="7.94" speed="8.65"/>
            </lane>
        </edge>
        <edge id="909914270#33">
            <lane id="909914270#33_0">
                <vehicle id="2" pos="38.74" speed="7.56"/>
            </lane>
        </edge>
        <edge id="945072829">
            <lane id="945072829_0">
                <vehicle id="8" pos="3.30" speed="5.12"/>
            </lane>
        </edge>
        <edge id="945073867">
            <lane id="945073867_0">
                <vehicle id="9" pos="0.98" speed="4.06"/>
            </lane>
        </edge>
        <edge id="945073868">
            <lane id="945073868_0">
                <vehicle id="5" pos="14.16" speed="4.58"/>
            </lane>
        </edge>
        <edge id="946716296">
            <lane id="946716296_0">
                <vehicle id="4" pos="131.85" speed="13.78"/>
            </lane>
        </edge>
    </timestep>
    <timestep time="17.00">
        <edge id=":8474076926_0">
            <lane id=":8474076926_0_0">
                <vehicle id="2" pos="0.80" speed="3.06"/>
            </lane>
        </edge>
        <edge id=":8749294682_0">
            <lane id=":8749294682_0_0">
                <vehicle id="8" pos="0.13" speed="3.18"/>
            </lane>
        </edge>
        <edge id=":8767332505_7">
            <lane id=":8767332505_7_0">
                <vehicle id="1" pos="5.86" speed="6.03"/>
            </lane>
        </edge>
        <edge id="-912217163#1">
            <lane id="-912217163#1_0">
                <vehicle id="3" pos="77.38" speed="14.48"/>
            </lane>
        </edge>
        <edge id="-914857033#1">
            <lane id="-914857033#1_0">
                <vehicle id="6" pos="97.98" speed="13.86"/>
            </lane>
        </edge>
        <edge id="-918350368">
            <lane id="-918350368_0">
                <vehicle id="0" pos="201.38" speed="13.62"/>
            </lane>
        </edge>
        <edge id="909914270#18">
            <lane id="909914270#18_0">
                <vehicle id="7" pos="18.47" speed="10.53"/>
            </lane>
        </edge>
        <edge id="945073867">
            <lane id="945073867_0">
                <vehicle id="9" pos="5.48" speed="4.50"/>
            </lane>
        </edge>
        <edge id="945073868">
            <lane id="945073868_0">
                <vehicle id="5" pos="17.90" speed="3.75"/>
            </lane>
        </edge>
        <edge id="946716296">
            <lane id="946716296_0">
                <vehicle id="4" pos="145.91" speed="14.06"/>
            </lane>
        </edge>
    </timestep>
    <timestep time="18.00">
        <edge id=":8474076926_0">
            <lane id=":8474076926_0_0">
                <vehicle id="2" pos="4.47" speed="3.67"/>
            </lane>
        </edge>
        <edge id=":8749294682_0">
            <lane id=":8749294682_0_0">
                <vehicle id="8" pos="3.30" speed="3.17"/>
            </lane>
        </edge>
        <edge id=":8749321634_0">
            <lane id=":8749321634_0_0">
                <vehicle id="9" pos="0.04" speed="1.97"/>
            </lane>
        </edge>
        <edge id="-912217163#1">
            <lane id="-912217163#1_0">
                <vehicle id="3" pos="91.51" speed="14.14"/>
            </lane>
        </edge>
        <edge id="-914857033#1">
            <lane id="-914857033#1_0">
                <vehicle id="6" pos="111.74" speed="13.76"/>
            </lane>
        </edge>
        <edge id="-918350368">
            <lane id="-918350368_0">
                <vehicle id="0" pos="213.10" speed="11.72"/>
            </lane>
        </edge>
        <edge id="-947144987">
            <lane id="-947144987_0">
                <vehicle id="1" pos="3.43" speed="4.59"/>
            </lane>
        </edge>
        <edge id="909914270#18">
            <lane id="909914270#18_0">
                <vehicle id="7" pos="30.63" speed="12.16"/>
            </lane>
        </edge>
        <edge id="945073868">
            <lane id="945073868_0">
                <vehicle id="5" pos="21.35" speed="3.44"/>
            </lane>
        </edge>
        <edge id="946716296">
            <lane id="946716296_0">
                <vehicle id="4" pos="159.09" speed="13.18"/>
            </lane>
        </edge>
    </timestep>
    <timestep time="19.00">
        <edge id=":8749321634_0">
            <lane id=":8749321634_0_0">
                <vehicle id="9" pos="2.52" speed="2.48"/>
            </lane>
        </edge>
        <edge id="-909914270#33">
            <lane id="-909914270#33_0">
                <vehicle id="2" pos="3.42" speed="3.62"/>
            </lane>
        </edge>
        <edge id="-912217163#1">
            <lane id="-912217163#1_0">
                <vehicle id="3" pos="106.21" speed="14.70"/>
            </lane>
        </edge>
        <edge id="-914857033#1">
            <lane id="-914857033#1_0">
                <vehicle id="6" pos="126.08" speed="14.34"/>
            </lane>
        </edge>
        <edge id="-918350368">
            <lane id="-918350368_0">
                <vehicle id="0" pos="220.85" speed="7.75"/>
            </lane>
        </edge>
        <edge id="-945072829">
            <lane id="-945072829_0">
                <vehicle id="8" pos="1.67" speed="3.03"/>
            </lane>
        </edge>
        <edge id="-947144987">
            <lane id="-947144987_0">
                <vehicle id="1" pos="8.43" speed="5.01"/>
            </lane>
        </edge>
        <edge id="945073868">
            <lane id="945073868_0">
                <vehicle id="5" pos="25.05" speed="3.70"/>
            </lane>
        </edge>
        <edge id="946716296">
            <lane id="946716296_0">
                <vehicle id="4" pos="172.92" speed="13.83"/>
            </lane>
        </edge>
    </timestep>
    <timestep time="20.00">
        <edge id=":8529202120_0">
            <lane id=":8529202120_0_0">
                <vehicle id="0" pos="3.23" speed="3.25"/>
            </lane>
        </edge>
        <edge id=":8749294651_5">
            <lane id=":8749294651_5_0">
                <vehicle id="3" pos="9.08" speed="13.85"/>
            </lane>
        </edge>
        <edge id="-909914270#33">
            <lane id="-909914270#33_0">
                <vehicle id="2" pos="8.80" speed="5.38"/>
            </lane>
        </edge>
        <edge id="-914857033#1">
            <lane id="-914857033#1_0">
                <vehicle id="6" pos="137.19" speed="11.10"/>
            </lane>
        </edge>
        <edge id="-945072829">
            <lane id="-945072829_0">
                <vehicle id="8" pos="5.70" speed="4.03"/>
            </lane>
        </edge>
        <edge id="-945073867">
            <lane id="-945073867_0">
                <vehicle id="9" pos="0.23" speed="2.38"/>
            </lane>
        </edge>
        <edge id="945073868">
            <lane id="945073868_0">
                <vehicle id="5" pos="28.73" speed="3.68"/>
            </lane>
        </edge>
        <edge id="946716296">
            <lane id="946716296_0">
                <vehicle id="4" pos="186.76" speed="13.84"/>
            </lane>
        </edge>
    </timestep>
    <timestep time="21.00">
        <edge id=":8498312458_1">
            <lane id=":8498312458_1_0">
                <vehicle id="6" pos="7.94" speed="9.04"/>
            </lane>
        </edge>
        <edge id="-909914270#33">
            <lane id="-909914270#33_0">
                <vehicle id="2" pos="16.66" speed="7.86"/>
            </lane>
        </edge>
        <edge id="-912217163#0">
            <lane id="-912217163#0_0">
                <vehicle id="3" pos="12.72" speed="13.83"/>
            </lane>
        </edge>
        <edge id="-945073867">
            <lane id="-945073867_0">
                <vehicle id="9" pos="4.99" speed="4.76"/>
            </lane>
        </edge>
        <edge id="918350368">
            <lane id="918350368_0">
                <vehicle id="0" pos="1.23" speed="2.67"/>
            </lane>
        </edge>
        <edge id="945073868">
            <lane id="945073868_0">
                <vehicle id="5" pos="32.14" speed="3.41"/>
            </lane>
        </edge>
        <edge id="946716296">
            <lane id="946716296_0">
                <vehicle id="4" pos="200.65" speed="13.89"/>
            </lane>
        </edge>
    </timestep>
    <timestep time="22.00">
        <edge id="-909914270#33">
            <lane id="-909914270#33_0">
                <vehicle id="2" pos="26.47" speed="9.81"/>
            </lane>
        </edge>