<?xml version="1.0" encoding="UTF-8"?>

<!-- generated on 2025-04-15 13:23:52 by Eclipse SUMO GUI Version 1.12.0
<configuration xmlns:xsi="http://www.w3.org/2001/XMLSchema-instance" xsi:noNamespaceSchemaLocation="http://sumo.dlr.de/xsd/sumoConfiguration.xsd">

    <input>
        <net-file value="./dataset/Bac%20Giang/net.xml"/>
        <route-files value="./dataset/Bac%20Giang/routes.xml"/>
    </input>

    <output>
        <netstate-dump value="./dataset/Bac%20Giang/netstate.xml"/>
        <tripinfo-output value="./dataset/Bac%20Giang/tripinfo.xml"/>
    </output>

    <time>
        <begin value="0"/>
        <end value="1000"/>
    </time>

    <traci_server>
        <remote-port value="57495"/>
    </traci_server>

</configuration>
-->

<netstate xmlns:xsi="http://www.w3.org/2001/XMLSchema-instance" xsi:noNamespaceSchemaLocation="http://sumo.dlr.de/xsd/netstate_file.xsd">
    <timestep time="0.00"/>
    <timestep time="1.00"/>
    <timestep time="2.00"/>
    <timestep time="3.00"/>
    <timestep time="4.00"/>
    <timestep time="5.00"/>
    <timestep time="6.00"/>
    <timestep time="7.00"/>
    <timestep time="8.00"/>
    <timestep time="9.00"/>
    <timestep time="10.00"/>
    <timestep time="11.00"/>
    <timestep time="12.00"/>
    <timestep time="13.00"/>
    <timestep time="14.00"/>
    <timestep time="15.00"/>
    <timestep time="16.00"/>
    <timestep time="17.00"/>
    <timestep time="18.00"/>
    <timestep time="19.00"/>
    <timestep time="20.00"/>
    <timestep time="21.00">
        <edge id="757360667#1">
            <lane id="757360667#1_0">
                <vehicle id="0" pos="5.10" speed="0.00"/>
            </lane>
        </edge>
    </timestep>
    <timestep time="22.00">
        <edge id="757360667#1">
            <lane id="757360667#1_0">
                <vehicle id="0" pos="7.59" speed="2.49"/>
            </lane>
        </edge>
    </timestep>
    <timestep time="23.00">
        <edge id="757360667#1">
            <lane id="757360667#1_0">
                <vehicle id="0" pos="11.95" speed="4.36"/>
            </lane>
        </edge>
    </timestep>
    <timestep time="24.00">
        <edge id="757360667#1">
            <lane id="757360667#1_0">
                <vehicle id="0" pos="18.85" speed="6.90"/>
            </lane>
        </edge>
    </timestep>
    <timestep time="25.00">
        <edge id="757360667#1">
            <lane id="757360667#1_0">
                <vehicle id="0" pos="27.97" speed="9.12"/>
            </lane>
        </edge>
    </timestep>
    <timestep time="26.00">
        <edge id="757360667#1">
            <lane id="757360667#1_0">
                <vehicle id="0" pos="39.53" speed="11.55"/>
            </lane>
        </edge>
    </timestep>
    <timestep time="27.00">
        <edge id="757360667#1">
            <lane id="757360667#1_0">
                <vehicle id="0" pos="53.32" speed="13.80"/>
            </lane>
        </edge>
    </timestep>
    <timestep time="28.00"/>
    <timestep time="29.00"/>
    <timestep time="30.00"/>
    <timestep time="31.00"/>
    <timestep time="32.00"/>
    <timestep time="33.00"/>
    <timestep time="34.00"/>
    <timestep time="35.00"/>
    <timestep time="36.00"/>
    <timestep time="37.00"/>
    <timestep time="38.00"/>
    <timestep time="39.00"/>
    <timestep time="40.00"/>
    <timestep time="41.00"/>
    <timestep time="42.00"/>
    <timestep time="43.00">
        <edge id="917255174">
            <lane id="917255174_0">
                <vehicle id="2" pos="5.10" speed="0.00"/>
            </lane>
        </edge>
    </timestep>
    <timestep time="44.00">
        <edge id="917255174">
            <lane id="917255174_0">
                <vehicle id="2" pos="7.65" speed="2.55"/>
            </lane>
        </edge>
    </timestep>
    <timestep time="45.00">
        <edge id=":8519604326_0">
            <lane id=":8519604326_0_0">
                <vehicle id="2" pos="0.32" speed="3.35"/>
            </lane>
        </edge>
    </timestep>
    <timestep time="46.00">
        <edge id=":8519604326_0">
            <lane id=":8519604326_0_0">
                <vehicle id="2" pos="2.55" speed="2.22"/>
            </lane>
        </edge>
    </timestep>
    <timestep time="47.00">
        <edge id="-917255174">
            <lane id="-917255174_0">
                <vehicle id="2" pos="0.75" speed="2.87"/>
            </lane>
        </edge>
    </timestep>
    <timestep time="48.00">
        <edge id="-917255174">
            <lane id="-917255174_0">
                <vehicle id="2" pos="5.61" speed="4.86"/>
            </lane>
        </edge>
    </timestep>
    <timestep time="49.00">
        <edge id="-917255174">
            <lane id="-917255174_0">
                <vehicle id="2" pos="9.61" speed="4.00"/>
            </lane>
        </edge>
    </timestep>
    <timestep time="50.00">
        <edge id=":8519604327_3">
            <lane id=":8519604327_3_0">
                <vehicle id="2" pos="3.50" speed="4.57"/>
            </lane>
        </edge>
    </timestep>
    <timestep time="51.00">
        <edge id=":8519604327_3">
            <lane id=":8519604327_3_0">
                <vehicle id="2" pos="10.27" speed="6.77"/>
            </lane>
        </edge>
    </timestep>
    <timestep time="52.00">
        <edge id="-756917426#1">
            <lane id="-756917426#1_0">
                <vehicle id="2" pos="7.06" speed="8.07"/>
            </lane>
        </edge>
    </timestep>
    <timestep time="53.00">
        <edge id="-756917426#1">
            <lane id="-756917426#1_0">
                <vehicle id="2" pos="16.44" speed="9.38"/>
            </lane>
        </edge>
    </timestep>
    <timestep time="54.00">
        <edge id="-756917426#1">
            <lane id="-756917426#1_0">
                <vehicle id="2" pos="27.48" speed="11.04"/>
            </lane>
        </edge>
    </timestep>
    <timestep time="55.00">
        <edge id="-756917426#1">
            <lane id="-756917426#1_0">
                <vehicle id="2" pos="39.88" speed="12.40"/>
            </lane>
        </edge>
        <edge id="757053791#1">
            <lane id="757053791#1_0">
                <vehicle id="3" pos="5.10" speed="0.00"/>
            </lane>
        </edge>
    </timestep>
    <timestep time="56.00">
        <edge id="-756917426#1">
            <lane id="-756917426#1_0">
                <vehicle id="2" pos="52.22" speed="12.34"/>
            </lane>
        </edge>
        <edge id="757053791#1">
            <lane id="757053791#1_0">
                <vehicle id="3" pos="7.69" speed="2.59"/>
            </lane>
        </edge>
    </timestep>
    <timestep time="57.00">
        <edge id="-756917426#1">
            <lane id="-756917426#1_0">
                <vehicle id="2" pos="65.12" speed="12.90"/>
            </lane>
        </edge>
        <edge id="757053791#1">
            <lane id="757053791#1_0">
                <vehicle id="3" pos="11.83" speed="4.14"/>
            </lane>
        </edge>
    </timestep>
    <timestep time="58.00">
        <edge id="-756917426#1">
            <lane id="-756917426#1_0">
                <vehicle id="2" pos="77.09" speed="11.98"/>
            </lane>
        </edge>
        <edge id="757053791#1">
            <lane id="757053791#1_0">
                <vehicle id="3" pos="17.37" speed="5.54"/>
            </lane>
        </edge>
    </timestep>
    <timestep time="59.00">
        <edge id="-756917426#1">
            <lane id="-756917426#1_0">
                <vehicle id="2" pos="89.75" speed="12.66"/>
            </lane>
        </edge>
        <edge id="757053791#1">
            <lane id="757053791#1_0">
                <vehicle id="3" pos="24.31" speed="6.94"/>
            </lane>
        </edge>
    </timestep>
    <timestep time="60.00">
        <edge id="-756917426#1">
            <lane id="-756917426#1_0">
                <vehicle id="2" pos="101.81" speed="12.05"/>
            </lane>
        </edge>
        <edge id="757053791#1">
            <lane id="757053791#1_0">
                <vehicle id="3" pos="33.37" speed="9.06"/>
            </lane>
        </edge>
    </timestep>
    <timestep time="61.00">
        <edge id="-756917426#1">
            <lane id="-756917426#1_0">
                <vehicle id="2" pos="114.53" speed="12.72"/>
            </lane>
        </edge>
        <edge id="757053791#1">
            <lane id="757053791#1_0">
                <vehicle id="3" pos="44.59" speed="11.22"/>
            </lane>
        </edge>
    </timestep>
    <timestep time="62.00">
        <edge id="-756917426#1">
            <lane id="-756917426#1_0">
                <vehicle id="2" pos="127.37" speed="12.85"/>
            </lane>
        </edge>
        <edge id="757053791#1">
            <lane id="757053791#1_0">
                <vehicle id="3" pos="57.45" speed="12.86"/>
            </lane>
        </edge>
    </timestep>
    <timestep time="63.00">
        <edge id="-756917426#1">
            <lane id="-756917426#1_0">
                <vehicle id="2" pos="140.39" speed="13.02"/>
            </lane>
        </edge>
        <edge id="757053791#1">
            <lane id="757053791#1_0">
                <vehicle id="3" pos="67.82" speed="10.37"/>
            </lane>
        </edge>
    </timestep>
    <timestep time="64.00">
        <edge id="-756917426#1">
            <lane id="-756917426#1_0">
                <vehicle id="2" pos="152.91" speed="12.52"/>
            </lane>
        </edge>
        <edge id="757053791#1">
            <lane id="757053791#1_0">
                <vehicle id="3" pos="75.40" speed="7.57"/>
            </lane>
        </edge>
    </timestep>
    <timestep time="65.00">
        <edge id=":7070289224_7">
            <lane id=":7070289224_7_0">
                <vehicle id="3" pos="4.10" speed="7.74"/>
            </lane>
        </edge>
        <edge id="-756917426#1">
            <lane id="-756917426#1_0">
                <vehicle id="2" pos="165.14" speed="12.23"/>
            </lane>
        </edge>
    </timestep>
    <timestep time="66.00">
        <edge id="-756917426#1">
            <lane id="-756917426#1_0">
                <vehicle id="2" pos="176.97" speed="11.83"/>
            </lane>
        </edge>
        <edge id="918117461">
            <lane id="918117461_0">
                <vehicle id="3" pos="1.64" speed="4.46"/>
            </lane>
        </edge>
    </timestep>
    <timestep time="67.00">
        <edge id="-756917426#1">
            <lane id="-756917426#1_0">
                <vehicle id="2" pos="189.85" speed="12.89"/>
            </lane>
        </edge>
        <edge id="-917260350#5">
            <lane id="-917260350#5_0">
                <vehicle id="9" pos="5.10" speed="0.00"/>
            </lane>
        </edge>
        <edge id="918117461">
            <lane id="918117461_0">
                <vehicle id="3" pos="6.84" speed="5.20"/>
            </lane>
        </edge>
    </timestep>
    <timestep time="68.00">
        <edge id="-756917426#1">
            <lane id="-756917426#1_0">
                <vehicle id="2" pos="202.57" speed="12.71"/>
            </lane>
        </edge>
        <edge id="-917260350#5">
            <lane id="-917260350#5_0">
                <vehicle id="9" pos="7.65" speed="2.55"/>
            </lane>
        </edge>
        <edge id="918117461">
            <lane id="918117461_0">
                <vehicle id="3" pos="12.30" speed="5.46"/>
            </lane>
        </edge>
    </timestep>
    <timestep time="69.00">
        <edge id="-756917426#1">
            <lane id="-756917426#1_0">
                <vehicle id="2" pos="215.39" speed="12.82"/>
            </lane>
        </edge>
        <edge id="-917260350#5">
            <lane id="-917260350#5_0">
                <vehicle id="9" pos="12.46" speed="4.80"/>
            </lane>
        </edge>
        <edge id="918117461">
            <lane id="918117461_0">
                <vehicle id="3" pos="17.49" speed="5.19"/>
            </lane>
        </edge>
    </timestep>
    <timestep time="70.00">
        <edge id="-756917426#1">
            <lane id="-756917426#1_0">
                <vehicle id="2" pos="227.51" speed="12.12"/>
            </lane>
        </edge>
        <edge id="-917260350#5">
            <lane id="-917260350#5_0">
                <vehicle id="9" pos="19.85" speed="7.40"/>
            </lane>
        </edge>
        <edge id="918117461">
            <lane id="918117461_0">
                <vehicle id="3" pos="21.91" speed="4.41"/>
            </lane>
        </edge>
    </timestep>
    <timestep time="71.00">
        <edge id=":8519623685_7">
            <lane id=":8519623685_7_0">
                <vehicle id="9" pos="2.67" speed="6.24"/>
            </lane>
        </edge>
        <edge id="-756917426#1">
            <lane id="-756917426#1_0">
                <vehicle id="2" pos="239.86" speed="12.35"/>
            </lane>
        </edge>
        <edge id="918117461">
            <lane id="918117461_0">
                <vehicle id="3" pos="26.32" speed="4.41"/>
            </lane>
        </edge>
    </timestep>
    <timestep time="72.00">
        <edge id="-756917426#1">
            <lane id="-756917426#1_0">
                <vehicle id="2" pos="252.31" speed="12.46"/>
            </lane>
        </edge>
        <edge id="917260351">
            <lane id="917260351_0">
                <vehicle id="9" pos="1.37" speed="6.02"/>
            </lane>
        </edge>
        <edge id="918117461">
            <lane id="918117461_0">
                <vehicle id="3" pos="31.38" speed="5.06"/>
            </lane>
        </edge>
    </timestep>
    <timestep time="73.00">
        <edge id="-756917426#1">
            <lane id="-756917426#1_0">
                <vehicle id="2" pos="264.21" speed="11.90"/>
            </lane>
        </edge>
        <edge id="917260351">
            <lane id="917260351_0">
                <vehicle id="9" pos="6.56" speed="5.18"/>
            </lane>
        </edge>
        <edge id="918117461">
            <lane id="918117461_0">
                <vehicle id="3" pos="36.59" speed="5.21"/>
            </lane>
        </edge>
    </timestep>
    <timestep time="74.00">
        <edge id="917260351">
            <lane id="917260351_0">
                <vehicle id="9" pos="12.45" speed="5.90"/>
            </lane>
        </edge>
        <edge id="918117461">
            <lane id="918117461_0">
                <vehicle id="3" pos="41.71" speed="5.12"/>
            </lane>
        </edge>
    </timestep>
    <timestep time="75.00">
        <edge id="917260351">
            <lane id="917260351_0">
                <vehicle id="9" pos="17.45" speed="4.99"/>
            </lane>
        </edge>
        <edge id="918117461">
            <lane id="918117461_0">
                <vehicle id="3" pos="47.12" speed="5.41"/>
            </lane>
        </edge>
    </timestep>
    <timestep time="76.00">
        <edge id=":8519623684_0">
            <lane id=":8519623684_0_0">
                <vehicle id="9" pos="3.14" speed="3.78"/>
            </lane>
        </edge>
        <edge id="918117461">
            <lane id="918117461_0">
                <vehicle id="3" pos="51.72" speed="4.60"/>
            </lane>
        </edge>
    </timestep>
    <timestep time="77.00">
        <edge id=":8527108188_0">
            <lane id=":8527108188_0_0">
                <vehicle id="3" pos="1.99" speed="3.21"/>
            </lane>
        </edge>
        <edge id="-917260351">
            <lane id="-917260351_0">
                <vehicle id="9" pos="1.58" speed="3.11"/>
            </lane>
        </edge>
    </timestep>
    <timestep time="78.00">
        <edge id="-917260351">
            <lane id="-917260351_0">
                <vehicle id="9" pos="6.32" speed="4.75"/>
            </lane>
        </edge>
        <edge id="-918117461">
            <lane id="-918117461_0">
                <vehicle id="3" pos="0.01" speed="2.69"/>
            </lane>
        </edge>
    </timestep>
    <timestep time="79.00">
        <edge id="-917260351">
            <lane id="-917260351_0">
                <vehicle id="9" pos="11.89" speed="5.57"/>
            </lane>
        </edge>
        <edge id="-918117461">
            <lane id="-918117461_0">
                <vehicle id="3" pos="4.66" speed="4.65"/>
            </lane>
        </edge>
    </timestep>
    <timestep time="80.00">
        <edge id="-917260351">
            <lane id="-917260351_0">
                <vehicle id="9" pos="17.69" speed="5.80"/>
            </lane>
        </edge>
        <edge id="-918117461">
            <lane id="-918117461_0">
                <vehicle id="3" pos="10.16" speed="5.50"/>
            </lane>
        </edge>
    </timestep>
    <timestep time="81.00">
        <edge id="-918117461">
            <lane id="-918117461_0">
                <vehicle id="3" pos="14.56" speed="4.40"/>
            </lane>
        </edge>
    </timestep>
    <timestep time="82.00">
        <edge id="-918117461">
            <lane id="-918117461_0">
                <vehicle id="3" pos="19.97" speed="5.40"/>
            </lane>
        </edge>
    </timestep>
    <timestep time="83.00">
        <edge id="-918117461">
            <lane id="-918117461_0">
                <vehicle id="3" pos="24.42" speed="4.46"/>
            </lane>
        </edge>
    </timestep>
    <timestep time="84.00">
        <edge id="-918117461">
            <lane id="-918117461_0">
                <vehicle id="3" pos="28.85" speed="4.42"/>
            </lane>
        </edge>
    </timestep>
    <timestep time="85.00">
        <edge id="-918117461">
            <lane id="-918117461_0">
                <vehicle id="3" pos="33.93" speed="5.09"/>
            </lane>
        </edge>
    </timestep>
    <timestep time="86.00">
        <edge id="-918117461">
            <lane id="-918117461_0">
                <vehicle id="3" pos="38.50" speed="4.57"/>
            </lane>
        </edge>
    </timestep>
    <timestep time="87.00">
        <edge id="-918117461">
            <lane id="-918117461_0">
                <vehicle id="3" pos="44.11" speed="5.61"/>
            </lane>
        </edge>
    </timestep>
    <timestep time="88.00">
        <edge id="-918117461">
            <lane id="-918117461_0">
                <vehicle id="3" pos="49.17" speed="5.06"/>
            </lane>
        </edge>
    </timestep>
    <timestep time="89.00">
        <edge id="-918117461">
            <lane id="-918117461_0">
                <vehicle id="3" pos="53.60" speed="4.43"/>
            </lane>
        </edge>
    </timestep>
    <timestep time="90.00"/>
</netstate>
