<?xml version="1.0" encoding="UTF-8"?>

<!-- generated on 2025-04-15 13:23:52 by Eclipse SUMO GUI Version 1.12.0
<configuration xmlns:xsi="http://www.w3.org/2001/XMLSchema-instance" xsi:noNamespaceSchemaLocation="http://sumo.dlr.de/xsd/sumoConfiguration.xsd">

    <input>
        <net-file value="./dataset/Bac%20Giang/net.xml"/>
        <route-files value="./dataset/Bac%20Giang/routes.xml"/>
    </input>

    <output>
        <netstate-dump value="./dataset/Bac%20Giang/netstate.xml"/>
        <tripinfo-output value="./dataset/Bac%20Giang/tripinfo.xml"/>
    </output>

    <time>
        <begin value="0"/>
        <end value="1000"/>
    </time>

    <traci_server>
        <remote-port value="57495"/>
    </traci_server>

</configuration>
-->

<tripinfos xmlns:xsi="http://www.w3.org/2001/XMLSchema-instance" xsi:noNamespaceSchemaLocation="http://sumo.dlr.de/xsd/tripinfo_file.xsd">
    <tripinfo id="0" depart="21.00" departLane="757360667#1_0" departPos="5.10" departSpeed="0.00" departDelay="0.08" arrival="28.00" arrivalLane="757360667#3_0" arrivalPos="0.20" arrivalSpeed="13.28" duration="7.00" routeLength="58.71" waitingTime="0.00" waitingCount="0" stopTime="0.00" timeLoss="2.82" rerouteNo="0" devices="tripinfo_0" vType="DEFAULT_VEHTYPE" speedFactor="1.06" vaporized=""/>
    <tripinfo id="2" depart="43.00" departLane="917255174_0" departPos="5.10" departSpeed="0.00" departDelay="0.29" arrival="74.00" arrivalLane="-756917426#1_0" arrivalPos="275.42" arrivalSpeed="12.23" duration="31.00" routeLength="307.63" waitingTime="0.00" waitingCount="0" stopTime="0.00" timeLoss="4.04" rerouteNo="0" devices="tripinfo_2" vType="DEFAULT_VEHTYPE" speedFactor="0.94" vaporized=""/>
    <tripinfo id="9" depart="67.00" departLane="-917260350#5_0" departPos="5.10" departSpeed="0.00" departDelay="0.74" arrival="81.00" arrivalLane="-917260351_0" arrivalPos="18.09" arrivalSpeed="5.13" duration="14.00" routeLength="66.48" waitingTime="0.00" waitingCount="0" stopTime="0.00" timeLoss="3.50" rerouteNo="0" devices="tripinfo_9" vType="DEFAULT_VEHTYPE" speedFactor="1.08" vaporized=""/>
    <tripinfo id="3" depart="55.00" departLane="757053791#1_0" departPos="5.10" departSpeed="0.00" departDelay="0.41" arrival="90.00" arrivalLane="-918117461_0" arrivalPos="55.15" arrivalSpeed="4.76" duration="35.00" routeLength="193.61" waitingTime="0.00" waitingCount="0" stopTime="0.00" timeLoss="7.62" rerouteNo="0" devices="tripinfo_3" vType="DEFAULT_VEHTYPE" speedFactor="1.01" vaporized=""/>
</tripinfos>
