<?xml version="1.0" encoding="UTF-8"?>

<!-- generated on 2025-04-22 15:29:03 by Eclipse SUMO GUI Version 1.12.0
<configuration xmlns:xsi="http://www.w3.org/2001/XMLSchema-instance" xsi:noNamespaceSchemaLocation="http://sumo.dlr.de/xsd/sumoConfiguration.xsd">

    <input>
        <net-file value="./dataset/test%2003/net.xml"/>
        <route-files value="./dataset/test%2003/routes.xml"/>
    </input>

    <output>
        <netstate-dump value="./dataset/test%2003/netstate.xml"/>
        <tripinfo-output value="./dataset/test%2003/tripinfo.xml"/>
    </output>

    <time>
        <begin value="0"/>
        <end value="1000"/>
    </time>

    <traci_server>
        <remote-port value="41633"/>
    </traci_server>

</configuration>
-->

<netstate xmlns:xsi="http://www.w3.org/2001/XMLSchema-instance" xsi:noNamespaceSchemaLocation="http://sumo.dlr.de/xsd/netstate_file.xsd">
    <timestep time="0.00">
        <edge id="-946404518">
            <lane id="-946404518_0">
                <vehicle id="0" pos="2.04" speed="0.00"/>
            </lane>
        </edge>
    </timestep>
    <timestep time="1.00">
        <edge id=":8760698747_4">
            <lane id=":8760698747_4_0">
                <vehicle id="0" pos="2.25" speed="2.25"/>
            </lane>
        </edge>
        <edge id="911091546#2">
            <lane id="911091546#2_0">
                <vehicle id="1" pos="5.10" speed="0.00"/>
            </lane>
        </edge>
    </timestep>
    <timestep time="2.00">
        <edge id="-911095171#2">
            <lane id="-911095171#2_0">
                <vehicle id="2" pos="5.10" speed="0.00"/>
            </lane>
        </edge>
        <edge id="911091546#2">
            <lane id="911091546#2_0">
                <vehicle id="1" pos="6.42" speed="1.32"/>
            </lane>
        </edge>
        <edge id="946404518">
            <lane id="946404518_0">
                <vehicle id="0" pos="0.82" speed="3.25"/>
            </lane>
        </edge>
    </timestep>
    <timestep time="3.00">
        <edge id=":8760685495_0">
            <lane id=":8760685495_0_0">
                <vehicle id="0" pos="1.84" speed="3.06"/>
            </lane>
        </edge>
        <edge id="-909524517#8">
            <lane id="-909524517#8_0">
                <vehicle id="3" pos="5.10" speed="0.00"/>
            </lane>
        </edge>
        <edge id="-911095171#2">
            <lane id="-911095171#2_0">
                <vehicle id="2" pos="6.77" speed="1.67"/>
            </lane>
        </edge>
        <edge id="911091546#2">
            <lane id="911091546#2_0">
                <vehicle id="1" pos="10.24" speed="3.82"/>
            </lane>
        </edge>
    </timestep>
    <timestep time="4.00">
        <edge id="-909524517#8">
            <lane id="-909524517#8_0">
                <vehicle id="3" pos="6.46" speed="1.36"/>
            </lane>
        </edge>
        <edge id="-909524524">
            <lane id="-909524524_0">
                <vehicle id="4" pos="5.10" speed="0.00"/>
            </lane>
        </edge>
        <edge id="-911095171#2">
            <lane id="-911095171#2_0">
                <vehicle id="2" pos="10.32" speed="3.56"/>
            </lane>
        </edge>
        <edge id="-946404518">
            <lane id="-946404518_0">
                <vehicle id="0" pos="0.62" speed="3.45"/>
            </lane>
        </edge>
        <edge id="911091546#2">
            <lane id="911091546#2_0">
                <vehicle id="1" pos="15.12" speed="4.88"/>
            </lane>
        </edge>
    </timestep>
    <timestep time="5.00">
        <edge id="-909524517#8">
            <lane id="-909524517#8_0">
                <vehicle id="3" pos="9.32" speed="2.86"/>
            </lane>
        </edge>
        <edge id="-909524524">
            <lane id="-909524524_0">
                <vehicle id="4" pos="6.40" speed="1.30"/>
            </lane>
        </edge>
        <edge id="-911095171#2">
            <lane id="-911095171#2_0">
                <vehicle id="2" pos="15.73" speed="5.41"/>
            </lane>
        </edge>
        <edge id="910288724#1">
            <lane id="910288724#1_0">
                <vehicle id="5" pos="5.10" speed="0.00"/>
            </lane>
        </edge>
        <edge id="911091546#2">
            <lane id="911091546#2_0">
                <vehicle id="1" pos="19.53" speed="4.41"/>
            </lane>
        </edge>
    </timestep>
    <timestep time="6.00">
        <edge id=":8451489406_5">
            <lane id=":8451489406_5_0">
                <vehicle id="5" pos="0.33" speed="1.38"/>
            </lane>
        </edge>
        <edge id="-909524517#8">
            <lane id="-909524517#8_0">
                <vehicle id="3" pos="13.64" speed="4.32"/>
            </lane>
        </edge>
        <edge id="-909524524">
            <lane id="-909524524_0">
                <vehicle id="4" pos="9.37" speed="2.96"/>
            </lane>
        </edge>
        <edge id="-910287226#9">
            <lane id="-910287226#9_0">
                <vehicle id="6" pos="5.10" speed="0.00"/>
            </lane>
        </edge>
        <edge id="-911095171#2">
            <lane id="-911095171#2_0">
                <vehicle id="2" pos="22.61" speed="6.88"/>
            </lane>
        </edge>
        <edge id="911091546#2">
            <lane id="911091546#2_0">
                <vehicle id="1" pos="24.38" speed="4.86"/>
            </lane>
        </edge>
    </timestep>
    <timestep time="7.00">
        <edge id=":8451489406_5">
            <lane id=":8451489406_5_0">
                <vehicle id="5" pos="4.30" speed="3.97"/>
            </lane>
        </edge>
        <edge id="-909524517#8">
            <lane id="-909524517#8_0">
                <vehicle id="3" pos="20.51" speed="6.87"/>
            </lane>
        </edge>
        <edge id="-909524524">
            <lane id="-909524524_0">
                <vehicle id="4" pos="14.30" speed="4.93"/>
            </lane>
        </edge>
        <edge id="-910287226#9">
            <lane id="-910287226#9_0">
                <vehicle id="6" pos="7.12" speed="2.02"/>
            </lane>
        </edge>
        <edge id="-911091544#0">
            <lane id="-911091544#0_0">
                <vehicle id="7" pos="5.10" speed="0.00"/>
            </lane>
        </edge>
        <edge id="-911095171#2">
            <lane id="-911095171#2_0">
                <vehicle id="2" pos="31.97" speed="9.36"/>
            </lane>
        </edge>
        <edge id="911091546#2">
            <lane id="911091546#2_0">
                <vehicle id="1" pos="29.59" speed="5.20"/>
            </lane>
        </edge>
    </timestep>
    <timestep time="8.00">
        <edge id=":8451489406_5">
            <lane id=":8451489406_5_0">
                <vehicle id="5" pos="10.47" speed="6.17"/>
            </lane>
        </edge>
        <edge id="-909524517#8">
            <lane id="-909524517#8_0">
                <vehicle id="3" pos="29.44" speed="8.93"/>
            </lane>
        </edge>
        <edge id="-909524524">
            <lane id="-909524524_0">
                <vehicle id="4" pos="19.56" speed="5.27"/>
            </lane>
        </edge>
        <edge id="-910287226#9">
            <lane id="-910287226#9_0">
                <vehicle id="6" pos="10.97" speed="3.85"/>
            </lane>
        </edge>
        <edge id="-911091544#0">
            <lane id="-911091544#0_0">
                <vehicle id="7" pos="6.86" speed="1.76"/>
            </lane>
        </edge>
        <edge id="-911095171#2">
            <lane id="-911095171#2_0">
                <vehicle id="2" pos="40.50" speed="8.53"/>
            </lane>
        </edge>
        <edge id="910305798">
            <lane id="910305798_0">
                <vehicle id="8" pos="5.10" speed="0.00"/>
            </lane>
        </edge>
        <edge id="911091546#2">
            <lane id="911091546#2_0">
                <vehicle id="1" pos="34.52" speed="4.94"/>
            </lane>
        </edge>
    </timestep>
    <timestep time="9.00">
        <edge id=":8444830879_1">
            <lane id=":8444830879_1_0">
                <vehicle id="4" pos="5.48" speed="7.74"/>
            </lane>
        </edge>
        <edge id=":8459899511_3">
            <lane id=":8459899511_3_0">
                <vehicle id="2" pos="2.89" speed="5.07"/>
            </lane>
        </edge>
        <edge id="-909524517#8">
            <lane id="-909524517#8_0">
                <vehicle id="3" pos="40.78" speed="11.34"/>
            </lane>
        </edge>
        <edge id="-910287226#9">
            <lane id="-910287226#9_0">
                <vehicle id="6" pos="17.17" speed="6.19"/>
            </lane>
        </edge>
        <edge id="-911091544#0">
            <lane id="-911091544#0_0">
                <vehicle id="7" pos="11.10" speed="4.24"/>
            </lane>
        </edge>
        <edge id="-946783457#0">
            <lane id="-946783457#0_0">
                <vehicle id="9" pos="5.10" speed="0.00"/>
            </lane>
        </edge>
        <edge id="910288723">
            <lane id="910288723_0">
                <vehicle id="5" pos="0.44" speed="3.70"/>
            </lane>
        </edge>
        <edge id="910305798">
            <lane id="910305798_0">
                <vehicle id="8" pos="7.06" speed="1.96"/>
            </lane>
        </edge>
        <edge id="911091546#2">
            <lane id="911091546#2_0">
                <vehicle id="1" pos="39.23" speed="4.71"/>
            </lane>
        </edge>
    </timestep>
    <timestep time="10.00">
        <edge id=":8444830879_1">
            <lane id=":8444830879_1_0">
                <vehicle id="4" pos="12.51" speed="7.03"/>
            </lane>
        </edge>
        <edge id=":8459899511_7">
            <lane id=":8459899511_7_0">
                <vehicle id="2" pos="5.26" speed="5.94"/>
            </lane>
        </edge>
        <edge id="-909524517#8">
            <lane id="-909524517#8_0">
                <vehicle id="3" pos="51.69" speed="10.91"/>
            </lane>
        </edge>
        <edge id="-910287226#9">
            <lane id="-910287226#9_0">
                <vehicle id="6" pos="25.88" speed="8.71"/>
            </lane>
        </edge>
        <edge id="-911091544#0">
            <lane id="-911091544#0_0">
                <vehicle id="7" pos="15.86" speed="4.76"/>
            </lane>
        </edge>
        <edge id="-946783457#0">
            <lane id="-946783457#0_0">
                <vehicle id="9" pos="7.44" speed="2.34"/>
            </lane>
        </edge>
        <edge id="910288723">
            <lane id="910288723_0">
                <vehicle id="5" pos="4.42" speed="3.98"/>
            </lane>
        </edge>
        <edge id="910305798">
            <lane id="910305798_0">
                <vehicle id="8" pos="10.43" speed="3.38"/>
            </lane>
        </edge>
        <edge id="911091546#2">
            <lane id="911091546#2_0">
                <vehicle id="1" pos="43.46" speed="4.23"/>
            </lane>
        </edge>
    </timestep>
    <timestep time="11.00">
        <edge id="-909524517#8">
            <lane id="-909524517#8_0">
                <vehicle id="3" pos="58.10" speed="6.41"/>
            </lane>
        </edge>
        <edge id="-910287226#9">
            <lane id="-910287226#9_0">
                <vehicle id="6" pos="33.21" speed="7.34"/>
            </lane>
        </edge>
        <edge id="-911091544#0">
            <lane id="-911091544#0_0">
                <vehicle id="7" pos="19.60" speed="3.74"/>
            </lane>
        </edge>
        <edge id="-946783457#0">
            <lane id="-946783457#0_0">
                <vehicle id="9" pos="11.22" speed="3.78"/>
            </lane>
        </edge>
        <edge id="909524525#1">
            <lane id="909524525#1_0">
                <vehicle id="4" pos="5.60" speed="7.63"/>
            </lane>
        </edge>
        <edge id="910288723">
            <lane id="910288723_0">
                <vehicle id="5" pos="8.93" speed="4.50"/>
            </lane>
        </edge>
        <edge id="910305798">
            <lane id="910305798_0">
                <vehicle id="8" pos="14.55" speed="4.11"/>
            </lane>
        </edge>
        <edge id="911091546#2">
            <lane id="911091546#2_0">
                <vehicle id="1" pos="47.47" speed="4.01"/>
            </lane>
        </edge>
        <edge id="911095167">
            <lane id="911095167_0">
                <vehicle id="2" pos="2.32" speed="4.40"/>
            </lane>
        </edge>
    </timestep>
    <timestep time="12.00">
        <edge id=":8444830883_8">
            <lane id=":8444830883_8_0">
                <vehicle id="4" pos="1.22" speed="3.76"/>
            </lane>
        </edge>
        <edge id=":8448400236_9">
            <lane id=":8448400236_9_0">
                <vehicle id="3" pos="0.51" speed="2.86"/>
            </lane>
        </edge>
        <edge id=":8460000681_3">
            <lane id=":8460000681_3_0">
                <vehicle id="6" pos="1.70" speed="4.33"/>
            </lane>
        </edge>
        <edge id="-911091544#0">
            <lane id="-911091544#0_0">
                <vehicle id="7" pos="24.40" speed="4.79"/>
            </lane>
        </edge>
        <edge id="-946783457#0">
            <lane id="-946783457#0_0">
                <vehicle id="9" pos="17.45" speed="6.23"/>
            </lane>
        </edge>
        <edge id="910288723">
            <lane id="910288723_0">
                <vehicle id="5" pos="12.33" speed="3.40"/>
            </lane>
        </edge>
        <edge id="910305798">
            <lane id="910305798_0">
                <vehicle id="8" pos="19.00" speed="4.45"/>
            </lane>
        </edge>
        <edge id="911091546#2">
            <lane id="911091546#2_0">
                <vehicle id="1" pos="51.89" speed="4.42"/>
            </lane>
        </edge>
        <edge id="911095167">
            <lane id="911095167_0">
                <vehicle id="2" pos="7.33" speed="5.01"/>
            </lane>
        </edge>
    </timestep>
    <timestep time="13.00">
        <edge id=":8451677348_15">
            <lane id=":8451677348_15_0">
                <vehicle id="8" pos="0.49" speed="3.01"/>
            </lane>
        </edge>
        <edge id=":8460000681_7">
            <lane id=":8460000681_7_0">
                <vehicle id="6" pos="4.71" speed="5.14"/>
            </lane>
        </edge>
        <edge id="-909524525#1">
            <lane id="-909524525#1_0">
                <vehicle id="4" pos="0.07" speed="3.52"/>
            </lane>
        </edge>
        <edge id="-911091544#0">
            <lane id="-911091544#0_0">
                <vehicle id="7" pos="29.32" speed="4.92"/>
            </lane>
        </edge>
        <edge id="-946783457#0">
            <lane id="-946783457#0_0">
                <vehicle id="9" pos="25.55" speed="8.09"/>
            </lane>
        </edge>
        <edge id="909524517#8">
            <lane id="909524517#8_0">
                <vehicle id="3" pos="0.60" speed="3.32"/>
            </lane>
        </edge>
        <edge id="910288723">
            <lane id="910288723_0">
                <vehicle id="5" pos="16.74" speed="4.40"/>
            </lane>
        </edge>
        <edge id="911091546#2">
            <lane id="911091546#2_0">
                <vehicle id="1" pos="56.37" speed="4.48"/>
            </lane>
        </edge>
        <edge id="911095167">
            <lane id="911095167_0">
                <vehicle id="2" pos="11.84" speed="4.51"/>
            </lane>
        </edge>
    </timestep>
    <timestep time="14.00">
        <edge id=":8451677348_15">
            <lane id=":8451677348_15_0">
                <vehicle id="8" pos="3.64" speed="3.14"/>
            </lane>
        </edge>
        <edge id=":8459900897_3">
            <lane id=":8459900897_3_0">
                <vehicle id="1" pos="0.60" speed="3.57"/>
            </lane>
        </edge>
        <edge id=":8460000681_7">
            <lane id=":8460000681_7_0">
                <vehicle id="6" pos="10.62" speed="5.92"/>
            </lane>
        </edge>
        <edge id="-909524525#1">
            <lane id="-909524525#1_0">
                <vehicle id="4" pos="5.68" speed="5.60"/>
            </lane>
        </edge>
        <edge id="-911091544#0">
            <lane id="-911091544#0_0">
                <vehicle id="7" pos="33.24" speed="3.92"/>
            </lane>
        </edge>
        <edge id="-946783457#0">
            <lane id="-946783457#0_0">
                <vehicle id="9" pos="35.94" speed="10.40"/>
            </lane>
        </edge>
        <edge id="909524517#8">
            <lane id="909524517#8_0">
                <vehicle id="3" pos="5.44" speed="4.84"/>
            </lane>
        </edge>
        <edge id="910288723">
            <lane id="910288723_0">
                <vehicle id="5" pos="20.20" speed="3.46"/>
            </lane>
        </edge>
        <edge id="911095167">
            <lane id="911095167_0">
                <vehicle id="2" pos="16.87" speed="5.03"/>
            </lane>
        </edge>
    </timestep>
    <timestep time="15.00">
        <edge id=":8451489405_0">
            <lane id=":8451489405_0_0">
                <vehicle id="5" pos="0.25" speed="1.84"/>
            </lane>
        </edge>
        <edge id=":8459900894_2">
            <lane id=":8459900894_2_0">
                <vehicle id="7" pos="0.10" speed="4.15"/>
            </lane>
        </edge>
        <edge id=":8459900897_3">
            <lane id=":8459900897_3_0">
                <vehicle id="1" pos="4.96" speed="4.36"/>
            </lane>
        </edge>
        <edge id="-910305798">
            <lane id="-910305798_0">
                <vehicle id="8" pos="2.25" speed="3.29"/>
            </lane>
        </edge>
        <edge id="-946783457#0">
            <lane id="-946783457#0_0">
                <vehicle id="9" pos="47.35" speed="11.40"/>
            </lane>
        </edge>
        <edge id="909524517#8">
            <lane id="909524517#8_0">
                <vehicle id="3" pos="12.46" speed="7.02"/>
            </lane>
        </edge>
        <edge id="911095167">
            <lane id="911095167_0">
                <vehicle id="2" pos="19.44" speed="2.57"/>
            </lane>
        </edge>
        <edge id="911102488">
            <lane id="911102488_0">
                <vehicle id="6" pos="4.17" speed="5.08"/>
            </lane>
        </edge>
    </timestep>
    <timestep time="16.00">
        <edge id=":8451489405_0">
            <lane id=":8451489405_0_0">
                <vehicle id="5" pos="3.05" speed="2.81"/>
            </lane>
        </edge>
        <edge id=":8459899510_0">
            <lane id=":8459899510_0_0">
                <vehicle id="2" pos="1.81" speed="2.49"/>
            </lane>
        </edge>
        <edge id=":8459900894_2">
            <lane id=":8459900894_2_0">
                <vehicle id="7" pos="3.76" speed="3.66"/>
            </lane>
        </edge>
        <edge id="-910305798">
            <lane id="-910305798_0">
                <vehicle id="8" pos="6.30" speed="4.05"/>
            </lane>
        </edge>
        <edge id="-946783457#0">
            <lane id="-946783457#0_0">
                <vehicle id="9" pos="58.08" speed="10.74"/>
            </lane>
        </edge>
        <edge id="909524517#8">
            <lane id="909524517#8_0">
                <vehicle id="3" pos="21.93" speed="9.47"/>
            </lane>
        </edge>
        <edge id="911091543#2">
            <lane id="911091543#2_0">
                <vehicle id="1" pos="4.16" speed="4.17"/>
            </lane>
        </edge>
        <edge id="911102488">
            <lane id="911102488_0">
                <vehicle id="6" pos="9.01" speed="4.83"/>
            </lane>
        </edge>
    </timestep>
    <timestep time="17.00">
        <edge id=":8459899510_0">
            <lane id=":8459899510_0_0">
                <vehicle id="2" pos="4.27" speed="2.46"/>
            </lane>
        </edge>
        <edge id="-497065825#17">
            <lane id="-497065825#17_0">
                <vehicle id="7" pos="2.83" speed="4.13"/>
            </lane>
        </edge>
        <edge id="-910288723">
            <lane id="-910288723_0">
                <vehicle id="5" pos="0.71" speed="2.32"/>
            </lane>
        </edge>
        <edge id="-910305798">
            <lane id="-910305798_0">
                <vehicle id="8" pos="11.51" speed="5.21"/>
            </lane>
        </edge>
        <edge id="-946783457#0">
            <lane id="-946783457#0_0">
                <vehicle id="9" pos="69.15" speed="11.07"/>
            </lane>
        </edge>
        <edge id="909524517#8">
            <lane id="909524517#8_0">
                <vehicle id="3" pos="33.37" speed="11.44"/>
            </lane>
        </edge>
        <edge id="911091543#2">
            <lane id="911091543#2_0">
                <vehicle id="1" pos="8.87" speed="4.71"/>
            </lane>
        </edge>
        <edge id="911102488">
            <lane id="911102488_0">
                <vehicle id="6" pos="14.51" speed="5.50"/>
            </lane>
        </edge>
    </timestep>
    <timestep time="18.00">
        <edge id="-497065825#17">
            <lane id="-497065825#17_0">
                <vehicle id="7" pos="9.03" speed="6.20"/>
            </lane>
        </edge>
        <edge id="-910288723">
            <lane id="-910288723_0">
                <vehicle id="5" pos="4.42" speed="3.71"/>
            </lane>
        </edge>
        <edge id="-910305798">
            <lane id="-910305798_0">
                <vehicle id="8" pos="16.30" speed="4.79"/>
            </lane>
        </edge>
        <edge id="-911095167">
            <lane id="-911095167_0">
                <vehicle id="2" pos="2.02" speed="2.42"/>
            </lane>
        </edge>
        <edge id="-946783457#0">
            <lane id="-946783457#0_0">
                <vehicle id="9" pos="79.93" speed="10.78"/>
            </lane>
        </edge>
        <edge id="909524517#8">
            <lane id="909524517#8_0">
                <vehicle id="3" pos="46.54" speed="13.17"/>
            </lane>
        </edge>
        <edge id="911091543#2">
            <lane id="911091543#2_0">
                <vehicle id="1" pos="13.10" speed="4.23"/>
            </lane>
        </edge>
        <edge id="911102488">
            <lane id="911102488_0">
                <vehicle id="6" pos="20.14" speed="5.63"/>
            </lane>
        </edge>
    </timestep>
    <timestep time="19.00">
        <edge id="-497065825#17">
            <lane id="-497065825#17_0">
                <vehicle id="7" pos="16.73" speed="7.70"/>
            </lane>
        </edge>
        <edge id="-910288723">
            <lane id="-910288723_0">
                <vehicle id="5" pos="7.77" speed="3.35"/>
            </lane>
        </edge>
        <edge id="-910305798">
            <lane id="-910305798_0">
                <vehicle id="8" pos="21.34" speed="5.04"/>
            </lane>
        </edge>
        <edge id="-911095167">
            <lane id="-911095167_0">
                <vehicle id="2" pos="5.75" speed="3.73"/>
            </lane>
        </edge>
        <edge id="-946783457#0">
            <lane id="-946783457#0_0">
                <vehicle id="9" pos="90.72" speed="10.79"/>
            </lane>
        </edge>
        <edge id="909524517#8">
            <lane id="909524517#8_0">
                <vehicle id="3" pos="55.84" speed="9.30"/>
            </lane>
        </edge>
        <edge id="911091543#2">
            <lane id="911091543#2_0">
                <vehicle id="1" pos="18.07" speed="4.97"/>
            </lane>
        </edge>
        <edge id="911102488">
            <lane id="911102488_0">
                <vehicle id="6" pos="25.93" speed="5.80"/>
            </lane>
        </edge>
    </timestep>
    <timestep time="20.00">
        <edge id=":8448400238_5">
            <lane id=":8448400238_5_0">
                <vehicle id="3" pos="1.10" speed="5.35"/>
            </lane>
        </edge>
        <edge id=":8451677349_0">
            <lane id=":8451677349_0_0">
                <vehicle id="8" pos="2.68" speed="2.86"/>
            </lane>
        </edge>
        <edge id="-497065825#17">
            <lane id="-497065825#17_0">
                <vehicle id="7" pos="26.03" speed="9.30"/>
            </lane>
        </edge>
        <edge id="-910288723">
            <lane id="-910288723_0">
                <vehicle id="5" pos="12.30" speed="4.53"/>
            </lane>
        </edge>
        <edge id="-911095167">
            <lane id="-911095167_0">
                <vehicle id="2" pos="10.65" speed="4.90"/>
            </lane>
        </edge>
        <edge id="-946783457#0">
            <lane id="-946783457#0_0">
                <vehicle id="9" pos="101.58" speed="10.86"/>
            </lane>
        </edge>
        <edge id="911091543#2">
            <lane id="911091543#2_0">
                <vehicle id="1" pos="22.95" speed="4.88"/>
            </lane>
        </edge>
        <edge id="911102488">
            <lane id="911102488_0">
                <vehicle id="6" pos="31.24" speed="5.30"/>
            </lane>
        </edge>
    </timestep>
    <timestep time="21.00">
        <edge id="-497065825#17">
            <lane id="-497065825#17_0">
                <vehicle id="7" pos="37.09" speed="11.06"/>
            </lane>
        </edge>
        <edge id="-910288723">
            <lane id="-910288723_0">
                <vehicle id="5" pos="16.39" speed="4.09"/>
            </lane>
        </edge>
        <edge id="-911095167">
            <lane id="-911095167_0">
                <vehicle id="2" pos="15.69" speed="5.04"/>
            </lane>
        </edge>
        <edge id="-946783457#0">
            <lane id="-946783457#0_0">
                <vehicle id="9" pos="113.28" speed="11.71"/>
            </lane>
        </edge>
        <edge id="909895205">
            <lane id="909895205_0">
                <vehicle id="3" pos="1.35" speed="5.27"/>
            </lane>
        </edge>
        <edge id="910305798">
            <lane id="910305798_0">
                <vehicle id="8" pos="0.89" speed="2.88"/>
            </lane>
        </edge>
        <edge id="911091543#2">
            <lane id="911091543#2_0">
                <vehicle id="1" pos="27.40" speed="4.44"/>
            </lane>
        </edge>
        <edge id="911102488">
            <lane id="911102488_0">
                <vehicle id="6" pos="36.25" speed="5.01"/>
            </lane>
        </edge>
    </timestep>
    <timestep time="22.00">
        <edge id="-497065825#16">
            <lane id="-497065825#16_0">
                <vehicle id="7" pos="2.48" speed="12.48"/>
            </lane>
        </edge>
        <edge id="-910288723">
            <lane id="-910288723_0">
                <vehicle id="5" pos="19.92" speed="3.53"/>
            </lane>
        </edge>
        <edge id="-946783457#0">
            <lane id="-946783457#0_0">
                <vehicle id="9" pos="124.74" speed="11.46"/>
            </lane>
        </edge>
        <edge id="909895205">
            <lane id="909895205_0">
                <vehicle id="3" pos="6.51" speed="5.17"/>
            </lane>
        </edge>
        <edge id="910305798">
            <lane id="910305798_0">
                <vehicle id="8" pos="5.22" speed="4.32"/>
            </lane>
        </edge>
        <edge id="911091543#2">
            <lane id="911091543#2_0">
                <vehicle id="1" pos="32.51" speed="5.11"/>
            </lane>
        </edge>
        <edge id="911102488">
            <lane id="911102488_0">
                <vehicle id="6" pos="40.86" speed="4.61"/>
            </lane>
        </edge>
    </timestep>
    <timestep time="23.00">
        <edge id="-497065825#16">
            <lane id="-497065825#16_0">
                <vehicle id="7" pos="17.17" speed="14.69"/>
            </lane>
        </edge>
        <edge id="-946783457#0">
            <lane id="-946783457#0_0">
                <vehicle id="9" pos="136.08" speed="11.33"/>
            </lane>
        </edge>
        <edge id="909895205">
            <lane id="909895205_0">
                <vehicle id="3" pos="11.65" speed="5.13"/>
            </lane>
        </edge>
        <edge id="910305798">
            <lane id="910305798_0">
                <vehicle id="8" pos="10.08" speed="4.87"/>
            </lane>
        </edge>
        <edge id="911091543#2">
            <lane id="911091543#2_0">
                <vehicle id="1" pos="36.55" speed="4.04"/>
            </lane>
        </edge>
        <edge id="911102488">
            <lane id="911102488_0">
                <vehicle id="6" pos="46.53" speed="5.67"/>
            </lane>
        </edge>
    </timestep>
    <timestep time="24.00">
        <edge id="-946783457#0">
            <lane id="-946783457#0_0">
                <vehicle id="9" pos="147.15" speed="11.08"/>
            </lane>
        </edge>
        <edge id="909895205">
            <lane id="909895205_0">
                <vehicle id="3" pos="16.44" speed="4.79"/>
            </lane>
        </edge>
        <edge id="910305798">
            <lane id="910305798_0">
                <vehicle id="8" pos="14.07" speed="3.98"/>
            </lane>
        </edge>
        <edge id="911091543#2">
            <lane id="911091543#2_0">
                <vehicle id="1" pos="41.35" speed="4.80"/>
            </lane>
        </edge>
        <edge id="911102488">
            <lane id="911102488_0">
                <vehicle id="6" pos="52.02" speed="5.50"/>
            </lane>
        </edge>
    </timestep>
    <timestep time="25.00">
        <edge id=":8460000679_0">
            <lane id=":8460000679_0_0">